LIGGGHTS (Version LIGGGHTS-PUBLIC 3.8.0, compiled 2021-05-07-10:59:07 by dominik, git commit 01d02ac6e5320860b4b7a31377ff8411aba95902)
# Coarse-grained granular drum simulation LIGGGHTS script
# processors 3 3 1
################## Simulation  Variables #########################
variable timestep       equal 1e-5
variable N              equal 420000		    # number of particles
variable rate           equal 291000


variable youngmodP      equal 5e6
variable poissP         equal 0.3

variable corPP          equal 0.85		    # Vary
variable corPW          equal 0.85           # Vary
variable corPSW         equal 0.85         # Vary
variable cor            equal 0.85          # Dummy value, Wall-Sidewall

variable fricPP         equal 0.7		    # Vary
variable fricPW         equal 0.7		    # Vary
variable fricPSW        equal 0.01          # Vary
variable fric           equal 0.5		    # Dummy value, Wall-Sidewall

variable cohPP          equal 0
variable cohPW          equal 0

variable fricRoll       equal 0

variable dens           equal 1580.0



variable r0 equal 0.00028275
variable r1 equal 0.00036825
variable r2 equal 0.00045375
variable r3 equal 0.00053925
variable r4 equal 0.00062475
variable r5 equal 0.00071025
variable r6 equal 0.00079575
variable r7 equal 0.00088125
variable r8 equal 0.00096675


variable p0 equal 0.0009037031261010138
variable p1 equal 0.04477828422670519
variable p2 equal 0.14745312386545287
variable p3 equal 0.23067560318711097
variable p4 equal 0.2376431012320385
variable p5 equal 0.18210580772483456
variable p6 equal 0.10777042804850322
variable p7 equal 0.031412163859577215
variable p8 equal 0.017257784729676578

########################### Simulation Settings #########################
# Setting up system
atom_style 	    granular
atom_modify	    map array
boundary	    f f f
newton 		    off
communicate     single vel yes
units 		    si

# Define simulation domain
region domain block -0.103 0.103 -0.106 0.106 -0.01 0.1 units box
read_restart sim_outputs/pre_sheared.simsave#read_restart post/schulze.restart
  orthogonal box = (-0.103 -0.106 -0.01) to (0.103 0.106 0.1)
  1 by 1 by 1 MPI processor grid
  419988 atoms

# Create the neighbour list
neighbor	    0.0006 bin
neigh_modify	delay 0
hard_particles  yes

# Timestep size
timestep    ${timestep}
timestep    1e-05

# Set gravity as a constant force
fix gravi all gravity 9.81 vector 0.0 0.0 -1.0

########### Setting the Particle and Wall Properties ######################

fix m1 all property/global youngsModulus peratomtype ${youngmodP}   ${youngmodP}    ${youngmodP}
fix m1 all property/global youngsModulus peratomtype 5000000   ${youngmodP}    ${youngmodP}
fix m1 all property/global youngsModulus peratomtype 5000000   5000000    ${youngmodP}
fix m1 all property/global youngsModulus peratomtype 5000000   5000000    5000000
fix m2 all property/global poissonsRatio peratomtype ${poissP}      ${poissP}       ${poissP}
fix m2 all property/global poissonsRatio peratomtype 0.3      ${poissP}       ${poissP}
fix m2 all property/global poissonsRatio peratomtype 0.3      0.3       ${poissP}
fix m2 all property/global poissonsRatio peratomtype 0.3      0.3       0.3

fix m3 all property/global coefficientRestitution peratomtypepair 3     ${corPP}        ${corPW}        ${corPSW}          ${corPW}        ${cor}          ${cor}             ${corPSW}       ${cor}          ${cor}
fix m3 all property/global coefficientRestitution peratomtypepair 3     0.85        ${corPW}        ${corPSW}          ${corPW}        ${cor}          ${cor}             ${corPSW}       ${cor}          ${cor}
fix m3 all property/global coefficientRestitution peratomtypepair 3     0.85        0.85        ${corPSW}          ${corPW}        ${cor}          ${cor}             ${corPSW}       ${cor}          ${cor}
fix m3 all property/global coefficientRestitution peratomtypepair 3     0.85        0.85        0.85          ${corPW}        ${cor}          ${cor}             ${corPSW}       ${cor}          ${cor}
fix m3 all property/global coefficientRestitution peratomtypepair 3     0.85        0.85        0.85          0.85        ${cor}          ${cor}             ${corPSW}       ${cor}          ${cor}
fix m3 all property/global coefficientRestitution peratomtypepair 3     0.85        0.85        0.85          0.85        0.85          ${cor}             ${corPSW}       ${cor}          ${cor}
fix m3 all property/global coefficientRestitution peratomtypepair 3     0.85        0.85        0.85          0.85        0.85          0.85             ${corPSW}       ${cor}          ${cor}
fix m3 all property/global coefficientRestitution peratomtypepair 3     0.85        0.85        0.85          0.85        0.85          0.85             0.85       ${cor}          ${cor}
fix m3 all property/global coefficientRestitution peratomtypepair 3     0.85        0.85        0.85          0.85        0.85          0.85             0.85       0.85          ${cor}
fix m3 all property/global coefficientRestitution peratomtypepair 3     0.85        0.85        0.85          0.85        0.85          0.85             0.85       0.85          0.85

fix m4 all property/global coefficientFriction peratomtypepair 3     ${fricPP}       ${fricPW}       ${fricPSW}          ${fricPW}       ${fric}         ${fric}             ${fricPSW}      ${fric}         ${fric}
fix m4 all property/global coefficientFriction peratomtypepair 3     0.7       ${fricPW}       ${fricPSW}          ${fricPW}       ${fric}         ${fric}             ${fricPSW}      ${fric}         ${fric}
fix m4 all property/global coefficientFriction peratomtypepair 3     0.7       0.7       ${fricPSW}          ${fricPW}       ${fric}         ${fric}             ${fricPSW}      ${fric}         ${fric}
fix m4 all property/global coefficientFriction peratomtypepair 3     0.7       0.7       0.01          ${fricPW}       ${fric}         ${fric}             ${fricPSW}      ${fric}         ${fric}
fix m4 all property/global coefficientFriction peratomtypepair 3     0.7       0.7       0.01          0.7       ${fric}         ${fric}             ${fricPSW}      ${fric}         ${fric}
fix m4 all property/global coefficientFriction peratomtypepair 3     0.7       0.7       0.01          0.7       0.5         ${fric}             ${fricPSW}      ${fric}         ${fric}
fix m4 all property/global coefficientFriction peratomtypepair 3     0.7       0.7       0.01          0.7       0.5         0.5             ${fricPSW}      ${fric}         ${fric}
fix m4 all property/global coefficientFriction peratomtypepair 3     0.7       0.7       0.01          0.7       0.5         0.5             0.01      ${fric}         ${fric}
fix m4 all property/global coefficientFriction peratomtypepair 3     0.7       0.7       0.01          0.7       0.5         0.5             0.01      0.5         ${fric}
fix m4 all property/global coefficientFriction peratomtypepair 3     0.7       0.7       0.01          0.7       0.5         0.5             0.01      0.5         0.5

fix m5 all property/global k_finnie peratomtypepair 3 1.0 1.0 1.0 1.0 1.0 1.0 1.0 1.0 1.0


#fix  m6 all property/global cohesionEnergyDensity peratomtypepair 3 # ${cohPP}       ${cohPW}        ${cohPW}        # ${cohPW}       ${cohPW}        ${cohPW}        # ${cohPW}       ${cohPW}        ${cohPW}
fix  m7 all property/global coefficientRollingFriction peratomtypepair 3 ${fricRoll}         ${fricRoll}         ${fricRoll}         ${fricRoll}         ${fricRoll}         ${fricRoll}         ${fricRoll}         ${fricRoll}         ${fricRoll}
fix  m7 all property/global coefficientRollingFriction peratomtypepair 3 0         ${fricRoll}         ${fricRoll}         ${fricRoll}         ${fricRoll}         ${fricRoll}         ${fricRoll}         ${fricRoll}         ${fricRoll}
fix  m7 all property/global coefficientRollingFriction peratomtypepair 3 0         0         ${fricRoll}         ${fricRoll}         ${fricRoll}         ${fricRoll}         ${fricRoll}         ${fricRoll}         ${fricRoll}
fix  m7 all property/global coefficientRollingFriction peratomtypepair 3 0         0         0         ${fricRoll}         ${fricRoll}         ${fricRoll}         ${fricRoll}         ${fricRoll}         ${fricRoll}
fix  m7 all property/global coefficientRollingFriction peratomtypepair 3 0         0         0         0         ${fricRoll}         ${fricRoll}         ${fricRoll}         ${fricRoll}         ${fricRoll}
fix  m7 all property/global coefficientRollingFriction peratomtypepair 3 0         0         0         0         0         ${fricRoll}         ${fricRoll}         ${fricRoll}         ${fricRoll}
fix  m7 all property/global coefficientRollingFriction peratomtypepair 3 0         0         0         0         0         0         ${fricRoll}         ${fricRoll}         ${fricRoll}
fix  m7 all property/global coefficientRollingFriction peratomtypepair 3 0         0         0         0         0         0         0         ${fricRoll}         ${fricRoll}
fix  m7 all property/global coefficientRollingFriction peratomtypepair 3 0         0         0         0         0         0         0         0         ${fricRoll}
fix  m7 all property/global coefficientRollingFriction peratomtypepair 3 0         0         0         0         0         0         0         0         0


############################### GEOMETRIES #######################################
fix cad all mesh/surface/stress file    mesh/box.stl                   type 2 scale 0.001 wear finnie
INFO: mesh file (mesh/box.stl) is required, but data will be taken from restart file (../fix_mesh.cpp:417)
Resetting global state of Fix cad Style mesh/surface/stress from restart file info
fix shear_head all mesh/surface/stress file   mesh/head_base.stl           type 2 scale 0.001 move 0. 0. 0.05 curvature_tolerant yes wear finnie
INFO: mesh file (mesh/head_base.stl) is required, but data will be taken from restart file (../fix_mesh.cpp:417)
Resetting global state of Fix shear_head Style mesh/surface/stress from restart file info
fix shear_blades all mesh/surface/stress file   mesh/head_blades.stl        type 2 scale 0.001 move 0. 0. 0.05 curvature_tolerant yes wear finnie
INFO: mesh file (mesh/head_blades.stl) is required, but data will be taken from restart file (../fix_mesh.cpp:417)
Resetting global state of Fix shear_blades Style mesh/surface/stress from restart file info

fix inface all mesh/surface file        mesh/inlet.stl              type 3 scale 0.99
INFO: mesh file (mesh/inlet.stl) is required, but data will be taken from restart file (../fix_mesh.cpp:417)
Resetting global state of Fix inface Style mesh/surface from restart file info


############################# Contact models ######################################
pair_style  gran model hertz tangential history rolling_friction cdt
pair_coeff  * *

# Wall contact models
fix granwalls all wall/gran model hertz tangential history rolling_friction cdt mesh n_meshes 3 meshes cad shear_head shear_blades
Resetting global state of Fix n_neighs_mesh_cad Style property/atom from restart file info
Resetting per-atom state of Fix n_neighs_mesh_cad Style property/atom from restart file info
Resetting global state of Fix tracker_cad Style contacthistory/mesh from restart file info
Resetting per-atom state of Fix tracker_cad Style contacthistory/mesh from restart file info
Resetting global state of Fix n_neighs_mesh_shear_head Style property/atom from restart file info
Resetting per-atom state of Fix n_neighs_mesh_shear_head Style property/atom from restart file info
Resetting global state of Fix tracker_shear_head Style contacthistory/mesh from restart file info
Resetting per-atom state of Fix tracker_shear_head Style contacthistory/mesh from restart file info
Resetting global state of Fix n_neighs_mesh_shear_blades Style property/atom from restart file info
Resetting per-atom state of Fix n_neighs_mesh_shear_blades Style property/atom from restart file info
Resetting global state of Fix tracker_shear_blades Style contacthistory/mesh from restart file info
Resetting per-atom state of Fix tracker_shear_blades Style contacthistory/mesh from restart file info


############################# Particle Insertion setup #############################
fix pts0  all particletemplate/sphere 15485863 atom_type 1 density constant ${dens} radius constant ${r0}
fix pts0  all particletemplate/sphere 15485863 atom_type 1 density constant 1580 radius constant ${r0}
fix pts0  all particletemplate/sphere 15485863 atom_type 1 density constant 1580 radius constant 0.00028275
Resetting global state of Fix pts0 Style particletemplate/sphere from restart file info
fix pts1  all particletemplate/sphere 20433971 atom_type 1 density constant ${dens} radius constant ${r1}
fix pts1  all particletemplate/sphere 20433971 atom_type 1 density constant 1580 radius constant ${r1}
fix pts1  all particletemplate/sphere 20433971 atom_type 1 density constant 1580 radius constant 0.00036825
Resetting global state of Fix pts1 Style particletemplate/sphere from restart file info
fix pts2  all particletemplate/sphere 20433977 atom_type 1 density constant ${dens} radius constant ${r2}
fix pts2  all particletemplate/sphere 20433977 atom_type 1 density constant 1580 radius constant ${r2}
fix pts2  all particletemplate/sphere 20433977 atom_type 1 density constant 1580 radius constant 0.00045375
Resetting global state of Fix pts2 Style particletemplate/sphere from restart file info
fix pts3  all particletemplate/sphere 20434457 atom_type 1 density constant ${dens} radius constant ${r3}
fix pts3  all particletemplate/sphere 20434457 atom_type 1 density constant 1580 radius constant ${r3}
fix pts3  all particletemplate/sphere 20434457 atom_type 1 density constant 1580 radius constant 0.00053925
Resetting global state of Fix pts3 Style particletemplate/sphere from restart file info
fix pts4  all particletemplate/sphere 20434553 atom_type 1 density constant ${dens} radius constant ${r4}
fix pts4  all particletemplate/sphere 20434553 atom_type 1 density constant 1580 radius constant ${r4}
fix pts4  all particletemplate/sphere 20434553 atom_type 1 density constant 1580 radius constant 0.00062475
Resetting global state of Fix pts4 Style particletemplate/sphere from restart file info
fix pts5  all particletemplate/sphere 20435099 atom_type 1 density constant ${dens} radius constant ${r5}
fix pts5  all particletemplate/sphere 20435099 atom_type 1 density constant 1580 radius constant ${r5}
fix pts5  all particletemplate/sphere 20435099 atom_type 1 density constant 1580 radius constant 0.00071025
Resetting global state of Fix pts5 Style particletemplate/sphere from restart file info
fix pts6  all particletemplate/sphere 20437121 atom_type 1 density constant ${dens} radius constant ${r6}
fix pts6  all particletemplate/sphere 20437121 atom_type 1 density constant 1580 radius constant ${r6}
fix pts6  all particletemplate/sphere 20437121 atom_type 1 density constant 1580 radius constant 0.00079575
Resetting global state of Fix pts6 Style particletemplate/sphere from restart file info
fix pts7  all particletemplate/sphere 20437633 atom_type 1 density constant ${dens} radius constant ${r7}
fix pts7  all particletemplate/sphere 20437633 atom_type 1 density constant 1580 radius constant ${r7}
fix pts7  all particletemplate/sphere 20437633 atom_type 1 density constant 1580 radius constant 0.00088125
Resetting global state of Fix pts7 Style particletemplate/sphere from restart file info
fix pts8  all particletemplate/sphere 20437751 atom_type 1 density constant ${dens} radius constant ${r8}
fix pts8  all particletemplate/sphere 20437751 atom_type 1 density constant 1580 radius constant ${r8}
fix pts8  all particletemplate/sphere 20437751 atom_type 1 density constant 1580 radius constant 0.00096675
Resetting global state of Fix pts8 Style particletemplate/sphere from restart file info


fix pdd all particledistribution/discrete/numberbased 49979693 9  pts0 ${p0}  pts1 ${p1}  pts2 ${p2}  pts3 ${p3}  pts4 ${p4}  pts5 ${p5}  pts6 ${p6}  pts7 ${p7}  pts8 ${p8}
fix pdd all particledistribution/discrete/numberbased 49979693 9  pts0 0.000903703126101014  pts1 ${p1}  pts2 ${p2}  pts3 ${p3}  pts4 ${p4}  pts5 ${p5}  pts6 ${p6}  pts7 ${p7}  pts8 ${p8}
fix pdd all particledistribution/discrete/numberbased 49979693 9  pts0 0.000903703126101014  pts1 0.0447782842267052  pts2 ${p2}  pts3 ${p3}  pts4 ${p4}  pts5 ${p5}  pts6 ${p6}  pts7 ${p7}  pts8 ${p8}
fix pdd all particledistribution/discrete/numberbased 49979693 9  pts0 0.000903703126101014  pts1 0.0447782842267052  pts2 0.147453123865453  pts3 ${p3}  pts4 ${p4}  pts5 ${p5}  pts6 ${p6}  pts7 ${p7}  pts8 ${p8}
fix pdd all particledistribution/discrete/numberbased 49979693 9  pts0 0.000903703126101014  pts1 0.0447782842267052  pts2 0.147453123865453  pts3 0.230675603187111  pts4 ${p4}  pts5 ${p5}  pts6 ${p6}  pts7 ${p7}  pts8 ${p8}
fix pdd all particledistribution/discrete/numberbased 49979693 9  pts0 0.000903703126101014  pts1 0.0447782842267052  pts2 0.147453123865453  pts3 0.230675603187111  pts4 0.237643101232038  pts5 ${p5}  pts6 ${p6}  pts7 ${p7}  pts8 ${p8}
fix pdd all particledistribution/discrete/numberbased 49979693 9  pts0 0.000903703126101014  pts1 0.0447782842267052  pts2 0.147453123865453  pts3 0.230675603187111  pts4 0.237643101232038  pts5 0.182105807724835  pts6 ${p6}  pts7 ${p7}  pts8 ${p8}
fix pdd all particledistribution/discrete/numberbased 49979693 9  pts0 0.000903703126101014  pts1 0.0447782842267052  pts2 0.147453123865453  pts3 0.230675603187111  pts4 0.237643101232038  pts5 0.182105807724835  pts6 0.107770428048503  pts7 ${p7}  pts8 ${p8}
fix pdd all particledistribution/discrete/numberbased 49979693 9  pts0 0.000903703126101014  pts1 0.0447782842267052  pts2 0.147453123865453  pts3 0.230675603187111  pts4 0.237643101232038  pts5 0.182105807724835  pts6 0.107770428048503  pts7 0.0314121638595772  pts8 ${p8}
fix pdd all particledistribution/discrete/numberbased 49979693 9  pts0 0.000903703126101014  pts1 0.0447782842267052  pts2 0.147453123865453  pts3 0.230675603187111  pts4 0.237643101232038  pts5 0.182105807724835  pts6 0.107770428048503  pts7 0.0314121638595772  pts8 0.0172577847296766
Resetting global state of Fix pdd Style particledistribution/discrete/numberbased from restart file info


group nve_group region domain
419988 atoms in group nve_group

# Particle insertion command; this is used by the Python driver code to change the number of particles
#fix ins all insert/stream seed 67867967 distributiontemplate pdd nparticles ${N} particlerate ${rate} #        overlapcheck yes all_in no vel constant 0.0 0.0 -1.0 insertion_face inface extrude_length 0.05


# Integration scheme
fix integr all nve/sphere


############################# DISPLAY SETTINGS #############################
thermo        10000
thermo_style  custom step atoms ke vol time
thermo_modify lost ignore norm no
modify_timing on

############################# OUTPUT settings #############################
#dump   dmp all custom/vtk 2000 post/drum_*.vtk id type type x y z ix iy iz vx vy vz fx fy fz omegax omegay omegaz radius density
#dump   dmpstl2 all mesh/vtk 2000 post/head_*.vtk   shear_head shear_blades vel stress wear



###############################################################
############################# RUN #############################
###############################################################

#restart 20000 schulze.restart schulze.restart
#run 600000

variable t equal step*dt
variable fX_shear_head equal f_shear_head[1]
variable fY_shear_head equal f_shear_head[2]
variable fZ_shear_head equal f_shear_head[3]
variable tqX_shear_head equal f_shear_head[4]
variable tqY_shear_head equal f_shear_head[5]
variable tqZ_shear_head equal f_shear_head[6]
variable posZ_shear_head equal f_shear_head[9]
fix csvfile2 all print 100 "$t ${fX_shear_head} ${fY_shear_head} ${fZ_shear_head} ${tqX_shear_head} ${tqY_shear_head} ${tqZ_shear_head} ${posZ_shear_head}" screen no file sim_outputs/shear_head_n_stress_2020_kpa.csv
variable fX_shear_blades equal f_shear_blades[1]
variable fY_shear_blades equal f_shear_blades[2]
variable fZ_shear_blades equal f_shear_blades[3]
variable tqX_shear_blades equal f_shear_blades[4]
variable tqY_shear_blades equal f_shear_blades[5]
variable tqZ_shear_blades equal f_shear_blades[6]
variable posZ_shear_blades equal f_shear_blades[9]
fix csvfile3 all print 100 "$t ${fX_shear_blades} ${fY_shear_blades} ${fZ_shear_blades} ${tqX_shear_blades} ${tqY_shear_blades} ${tqZ_shear_blades} ${posZ_shear_blades}" screen no file sim_outputs/shear_blades_n_stress_2020_kpa.csv
fix move_shear_blades all move/mesh mesh shear_blades linear 0.0 0.0 0.1
Resetting global state of Fix move_shear_blades Style move/mesh from restart file info
fix move_shear_head all move/mesh mesh shear_head linear 0.0 0.0 -0.1
Resetting global state of Fix move_shear_head Style move/mesh from restart file info
fix move_shear_blades all move/mesh mesh shear_blades linear 0.0 0.0 -0.1
Resetting global state of Fix move_shear_blades Style move/mesh from restart file info
fix move_shear_head all move/mesh mesh shear_head linear 0.0 0.0 -0.1
Resetting global state of Fix move_shear_head Style move/mesh from restart file info
run 100
Resetting global state of Fix contacthistory Style contacthistory from restart file info
Resetting per-atom state of Fix contacthistory Style contacthistory from restart file info
Setting up run at Tue Mar 29 20:54:55 2022

WARNING: Fix mesh: Mesh contains highly skewed element, moving mesh (if used) will not parallelize well (../surface_mesh_I.h:657)
WARNING: Fix mesh: Mesh contains highly skewed element, moving mesh (if used) will not parallelize well (../surface_mesh_I.h:657)
Memory usage per processor = 332.718 Mbytes
    Step    Atoms         KinEng         Volume           Time 
  190300   419988   0.0026162871     0.00480392              0 
  190400   419988   0.0030040719     0.00480392          0.001 
Loop time of 17.6333 on 1 procs for 100 steps with 419988 atoms, finish time Tue Mar 29 20:55:14 2022


Pair  time (%) = 13.5069 (76.5988)
Neigh time (%) = 0.371128 (2.1047)
Comm  time (%) = 0.00325407 (0.0184541)
Outpt time (%) = 0.0015151 (0.00859226)
Modfy time (%) = 3.51007 (19.9059)
Other time (%) = 0.240448 (1.3636)
Fix gravi gravity time (%) = 0.161025 (0.913183)
Fix m1 property/global time (%) = 2.80997e-07 (1.59356e-06)
Fix m2 property/global time (%) = 1.09998e-07 (6.23807e-07)
Fix m3 property/global time (%) = 1.09998e-07 (6.23807e-07)
Fix m4 property/global time (%) = 1.19999e-07 (6.80522e-07)
Fix m5 property/global time (%) = 1.10998e-07 (6.2948e-07)
Fix m7 property/global time (%) = 1.10002e-07 (6.23827e-07)
Fix cad mesh/surface/stress time (%) = 0.00322257 (0.0182754)
Fix shear_head mesh/surface/stress time (%) = 0.00311165 (0.0176464)
Fix shear_blades mesh/surface/stress time (%) = 0.00246584 (0.013984)
Fix inface mesh/surface time (%) = 0.000169675 (0.00096224)
Fix granwalls wall/gran time (%) = 2.59233 (14.7013)
Fix wall_neighlist_cad neighlist/mesh time (%) = 0.0134233 (0.0761247)
Fix n_neighs_mesh_cad property/atom time (%) = 7.12e-07 (4.03781e-06)
Fix tracker_cad contacthistory/mesh time (%) = 0.00779236 (0.0441911)
Fix wall_neighlist_shear_head neighlist/mesh time (%) = 0.0176741 (0.100231)
Fix n_neighs_mesh_shear_head property/atom time (%) = 5.21002e-07 (2.95464e-06)
Fix tracker_shear_head contacthistory/mesh time (%) = 0.00394498 (0.0223723)
Fix wall_neighlist_shear_blades neighlist/mesh time (%) = 0.0238899 (0.135481)
Fix n_neighs_mesh_shear_blades property/atom time (%) = 2.20003e-07 (1.24765e-06)
Fix tracker_shear_blades contacthistory/mesh time (%) = 0.0033885 (0.0192164)
Fix pts0 particletemplate/sphere time (%) = 2.91002e-07 (1.65029e-06)
Fix pts1 particletemplate/sphere time (%) = 2.09999e-07 (1.19092e-06)
Fix pts2 particletemplate/sphere time (%) = 1.99998e-07 (1.1342e-06)
Fix pts3 particletemplate/sphere time (%) = 1.10002e-07 (6.23827e-07)
Fix pts4 particletemplate/sphere time (%) = 1.09998e-07 (6.23807e-07)
Fix pts5 particletemplate/sphere time (%) = 1.10998e-07 (6.2948e-07)
Fix pts6 particletemplate/sphere time (%) = 3.79998e-07 (2.155e-06)
Fix pts7 particletemplate/sphere time (%) = 1.90001e-07 (1.07751e-06)
Fix pts8 particletemplate/sphere time (%) = 1.99998e-07 (1.1342e-06)
Fix pdd particledistribution/discrete/numberbased time (%) = 2.00998e-07 (1.13988e-06)
Fix integr nve/sphere time (%) = 0.631722 (3.58254)
Fix csvfile2 print time (%) = 7.7919e-05 (0.000441885)
Fix csvfile3 print time (%) = 1.7303e-05 (9.81266e-05)
Fix move_shear_blades move/mesh time (%) = 0.00234154 (0.0132791)
Fix move_shear_head move/mesh time (%) = 0.00235755 (0.0133698)
Fix contacthistory contacthistory time (%) = 0.0411089 (0.233132)

Nlocal:    419988 ave 419988 max 419988 min
Histogram: 1 0 0 0 0 0 0 0 0 0
Nghost:    0 ave 0 max 0 min
Histogram: 1 0 0 0 0 0 0 0 0 0
Neighs:    2.87016e+06 ave 2.87016e+06 max 2.87016e+06 min
Histogram: 1 0 0 0 0 0 0 0 0 0

Total # of neighbors = 2870156
Ave neighs/atom = 6.8339
Neighbor list builds = 1
Dangerous builds = 0
fix move_shear_blades all move/mesh mesh shear_blades linear 0.0 0.0 -0.1
fix move_shear_head all move/mesh mesh shear_head linear 0.0 0.0 -0.08733306047433224
fix move_shear_blades all move/mesh mesh shear_blades linear 0.0 0.0 -0.08733306047433224
fix move_shear_head all move/mesh mesh shear_head linear 0.0 0.0 -0.08733306047433224
run 100
Setting up run at Tue Mar 29 20:55:14 2022

Memory usage per processor = 336.914 Mbytes
    Step    Atoms         KinEng         Volume           Time 
  190400   419988   0.0030040719     0.00480392          0.001 
  190500   419988   0.0022582591     0.00480392          0.002 
Loop time of 17.793 on 1 procs for 100 steps with 419988 atoms, finish time Tue Mar 29 20:55:32 2022


Pair  time (%) = 13.6482 (76.7057)
Neigh time (%) = 0.372161 (2.09162)
Comm  time (%) = 0.00325744 (0.0183075)
Outpt time (%) = 0.00151624 (0.00852159)
Modfy time (%) = 3.52842 (19.8304)
Other time (%) = 0.239397 (1.34546)
Fix gravi gravity time (%) = 0.160873 (0.904139)
Fix m1 property/global time (%) = 2.80001e-07 (1.57366e-06)
Fix m2 property/global time (%) = 1.10998e-07 (6.23833e-07)
Fix m3 property/global time (%) = 1.09998e-07 (6.1821e-07)
Fix m4 property/global time (%) = 2.59999e-07 (1.46125e-06)
Fix m5 property/global time (%) = 1.00001e-07 (5.62024e-07)
Fix m7 property/global time (%) = 1.10002e-07 (6.18231e-07)
Fix cad mesh/surface/stress time (%) = 0.00317576 (0.0178484)
Fix shear_head mesh/surface/stress time (%) = 0.00310842 (0.0174699)
Fix shear_blades mesh/surface/stress time (%) = 0.00243617 (0.0136918)
Fix inface mesh/surface time (%) = 0.000178109 (0.00100101)
Fix granwalls wall/gran time (%) = 2.61288 (14.6849)
Fix wall_neighlist_cad neighlist/mesh time (%) = 0.0132809 (0.0746415)
Fix n_neighs_mesh_cad property/atom time (%) = 7.10999e-07 (3.99596e-06)
Fix tracker_cad contacthistory/mesh time (%) = 0.00775509 (0.0435852)
Fix wall_neighlist_shear_head neighlist/mesh time (%) = 0.0170809 (0.095998)
Fix n_neighs_mesh_shear_head property/atom time (%) = 2.00998e-07 (1.12965e-06)
Fix tracker_shear_head contacthistory/mesh time (%) = 0.00395483 (0.0222269)
Fix wall_neighlist_shear_blades neighlist/mesh time (%) = 0.0233493 (0.131228)
Fix n_neighs_mesh_shear_blades property/atom time (%) = 2.20996e-07 (1.24204e-06)
Fix tracker_shear_blades contacthistory/mesh time (%) = 0.00338433 (0.0190206)
Fix pts0 particletemplate/sphere time (%) = 2.80001e-07 (1.57366e-06)
Fix pts1 particletemplate/sphere time (%) = 2.01002e-07 (1.12967e-06)
Fix pts2 particletemplate/sphere time (%) = 1.90001e-07 (1.06784e-06)
Fix pts3 particletemplate/sphere time (%) = 1.11002e-07 (6.23853e-07)
Fix pts4 particletemplate/sphere time (%) = 1.00001e-07 (5.62024e-07)
Fix pts5 particletemplate/sphere time (%) = 1.60002e-07 (8.99243e-07)
Fix pts6 particletemplate/sphere time (%) = 2.81001e-07 (1.57928e-06)
Fix pts7 particletemplate/sphere time (%) = 1.90001e-07 (1.06784e-06)
Fix pts8 particletemplate/sphere time (%) = 2.01002e-07 (1.12967e-06)
Fix pdd particledistribution/discrete/numberbased time (%) = 2.00002e-07 (1.12405e-06)
Fix integr nve/sphere time (%) = 0.630859 (3.54555)
Fix csvfile2 print time (%) = 7.7097e-05 (0.0004333)
Fix csvfile3 print time (%) = 1.8195e-05 (0.00010226)
Fix move_shear_blades move/mesh time (%) = 0.00235235 (0.0132207)
Fix move_shear_head move/mesh time (%) = 0.00238397 (0.0133984)
Fix contacthistory contacthistory time (%) = 0.0412633 (0.231908)

Nlocal:    419988 ave 419988 max 419988 min
Histogram: 1 0 0 0 0 0 0 0 0 0
Nghost:    0 ave 0 max 0 min
Histogram: 1 0 0 0 0 0 0 0 0 0
Neighs:    2.87581e+06 ave 2.87581e+06 max 2.87581e+06 min
Histogram: 1 0 0 0 0 0 0 0 0 0

Total # of neighbors = 2875808
Ave neighs/atom = 6.84736
Neighbor list builds = 1
Dangerous builds = 0
fix move_shear_blades all move/mesh mesh shear_blades linear 0.0 0.0 -0.08733306047433224
fix move_shear_head all move/mesh mesh shear_head linear 0.0 0.0 0.1
fix move_shear_blades all move/mesh mesh shear_blades linear 0.0 0.0 0.1
fix move_shear_head all move/mesh mesh shear_head linear 0.0 0.0 0.1
run 100
Setting up run at Tue Mar 29 20:55:32 2022

Memory usage per processor = 337.677 Mbytes
    Step    Atoms         KinEng         Volume           Time 
  190500   419988   0.0022582591     0.00480392          0.002 
  190600   419988   0.0019842618     0.00480392          0.003 
Loop time of 17.7577 on 1 procs for 100 steps with 419988 atoms, finish time Tue Mar 29 20:55:51 2022


Pair  time (%) = 13.6836 (77.0574)
Neigh time (%) = 0.375633 (2.11533)
Comm  time (%) = 0.00322738 (0.0181746)
Outpt time (%) = 0.00148303 (0.00835149)
Modfy time (%) = 3.45432 (19.4525)
Other time (%) = 0.239411 (1.34821)
Fix gravi gravity time (%) = 0.160284 (0.90262)
Fix m1 property/global time (%) = 2.91002e-07 (1.63874e-06)
Fix m2 property/global time (%) = 1.00001e-07 (5.63141e-07)
Fix m3 property/global time (%) = 1.00001e-07 (5.63141e-07)
Fix m4 property/global time (%) = 1.09998e-07 (6.19439e-07)
Fix m5 property/global time (%) = 1.00001e-07 (5.63141e-07)
Fix m7 property/global time (%) = 1.10002e-07 (6.19459e-07)
Fix cad mesh/surface/stress time (%) = 0.003247 (0.0182851)
Fix shear_head mesh/surface/stress time (%) = 0.00314086 (0.0176874)
Fix shear_blades mesh/surface/stress time (%) = 0.00247046 (0.0139121)
Fix inface mesh/surface time (%) = 0.000180355 (0.00101565)
Fix granwalls wall/gran time (%) = 2.53867 (14.2962)
Fix wall_neighlist_cad neighlist/mesh time (%) = 0.0135266 (0.0761734)
Fix n_neighs_mesh_cad property/atom time (%) = 8.71001e-07 (4.90493e-06)
Fix tracker_cad contacthistory/mesh time (%) = 0.00794876 (0.0447624)
Fix wall_neighlist_shear_head neighlist/mesh time (%) = 0.0170214 (0.095854)
Fix n_neighs_mesh_shear_head property/atom time (%) = 2.19999e-07 (1.2389e-06)
Fix tracker_shear_head contacthistory/mesh time (%) = 0.00370054 (0.0208391)
Fix wall_neighlist_shear_blades neighlist/mesh time (%) = 0.0233108 (0.131272)
Fix n_neighs_mesh_shear_blades property/atom time (%) = 2.10999e-07 (1.18821e-06)
Fix tracker_shear_blades contacthistory/mesh time (%) = 0.00344003 (0.0193721)
Fix pts0 particletemplate/sphere time (%) = 2.89998e-07 (1.63308e-06)
Fix pts1 particletemplate/sphere time (%) = 1.90001e-07 (1.06996e-06)
Fix pts2 particletemplate/sphere time (%) = 1.90001e-07 (1.06996e-06)
Fix pts3 particletemplate/sphere time (%) = 1.10002e-07 (6.19459e-07)
Fix pts4 particletemplate/sphere time (%) = 1.00001e-07 (5.63141e-07)
Fix pts5 particletemplate/sphere time (%) = 1.01001e-07 (5.68775e-07)
Fix pts6 particletemplate/sphere time (%) = 2.80001e-07 (1.57679e-06)
Fix pts7 particletemplate/sphere time (%) = 1.81e-07 (1.01928e-06)
Fix pts8 particletemplate/sphere time (%) = 1.99998e-07 (1.12626e-06)
Fix pdd particledistribution/discrete/numberbased time (%) = 1.91001e-07 (1.0756e-06)
Fix integr nve/sphere time (%) = 0.631622 (3.55689)
Fix csvfile2 print time (%) = 7.7588e-05 (0.000436927)
Fix csvfile3 print time (%) = 1.6972e-05 (9.55756e-05)
Fix move_shear_blades move/mesh time (%) = 0.00237515 (0.0133753)
Fix move_shear_head move/mesh time (%) = 0.00236273 (0.0133054)
Fix contacthistory contacthistory time (%) = 0.0409184 (0.230427)

Nlocal:    419988 ave 419988 max 419988 min
Histogram: 1 0 0 0 0 0 0 0 0 0
Nghost:    0 ave 0 max 0 min
Histogram: 1 0 0 0 0 0 0 0 0 0
Neighs:    2.87427e+06 ave 2.87427e+06 max 2.87427e+06 min
Histogram: 1 0 0 0 0 0 0 0 0 0

Total # of neighbors = 2874269
Ave neighs/atom = 6.84369
Neighbor list builds = 1
Dangerous builds = 0
fix move_shear_blades all move/mesh mesh shear_blades linear 0.0 0.0 0.1
fix move_shear_head all move/mesh mesh shear_head linear 0.0 0.0 -0.1
fix move_shear_blades all move/mesh mesh shear_blades linear 0.0 0.0 -0.1
fix move_shear_head all move/mesh mesh shear_head linear 0.0 0.0 -0.1
run 100
Setting up run at Tue Mar 29 20:55:51 2022

Memory usage per processor = 338.44 Mbytes
    Step    Atoms         KinEng         Volume           Time 
  190600   419988   0.0019842618     0.00480392          0.003 
  190700   419988   0.0024690622     0.00480392          0.004 
Loop time of 17.79 on 1 procs for 100 steps with 419988 atoms, finish time Tue Mar 29 20:56:10 2022


Pair  time (%) = 13.6628 (76.8006)
Neigh time (%) = 0.370702 (2.08376)
Comm  time (%) = 0.00328273 (0.0184527)
Outpt time (%) = 0.00150781 (0.0084756)
Modfy time (%) = 3.5122 (19.7425)
Other time (%) = 0.239491 (1.34621)
Fix gravi gravity time (%) = 0.160054 (0.899683)
Fix m1 property/global time (%) = 2.90998e-07 (1.63574e-06)
Fix m2 property/global time (%) = 1.09998e-07 (6.18313e-07)
Fix m3 property/global time (%) = 1.10002e-07 (6.18334e-07)
Fix m4 property/global time (%) = 1.00001e-07 (5.62118e-07)
Fix m5 property/global time (%) = 1.11002e-07 (6.23957e-07)
Fix m7 property/global time (%) = 1.00001e-07 (5.62118e-07)
Fix cad mesh/surface/stress time (%) = 0.00320162 (0.0179967)
Fix shear_head mesh/surface/stress time (%) = 0.00312779 (0.0175817)
Fix shear_blades mesh/surface/stress time (%) = 0.00244889 (0.0137656)
Fix inface mesh/surface time (%) = 0.000175467 (0.000986324)
Fix granwalls wall/gran time (%) = 2.59618 (14.5935)
Fix wall_neighlist_cad neighlist/mesh time (%) = 0.0134259 (0.0754687)
Fix n_neighs_mesh_cad property/atom time (%) = 9.71999e-07 (5.46374e-06)
Fix tracker_cad contacthistory/mesh time (%) = 0.00789906 (0.0444017)
Fix wall_neighlist_shear_head neighlist/mesh time (%) = 0.0170497 (0.0958386)
Fix n_neighs_mesh_shear_head property/atom time (%) = 2.01002e-07 (1.12986e-06)
Fix tracker_shear_head contacthistory/mesh time (%) = 0.00419607 (0.0235867)
Fix wall_neighlist_shear_blades neighlist/mesh time (%) = 0.023287 (0.1309)
Fix n_neighs_mesh_shear_blades property/atom time (%) = 2.20996e-07 (1.24225e-06)
Fix tracker_shear_blades contacthistory/mesh time (%) = 0.0038953 (0.021896)
Fix pts0 particletemplate/sphere time (%) = 2.90001e-07 (1.63014e-06)
Fix pts1 particletemplate/sphere time (%) = 2.00998e-07 (1.12984e-06)
Fix pts2 particletemplate/sphere time (%) = 1.90001e-07 (1.06802e-06)
Fix pts3 particletemplate/sphere time (%) = 1.10998e-07 (6.23937e-07)
Fix pts4 particletemplate/sphere time (%) = 1.00001e-07 (5.62118e-07)
Fix pts5 particletemplate/sphere time (%) = 1.20002e-07 (6.7455e-07)
Fix pts6 particletemplate/sphere time (%) = 5.81e-07 (3.26588e-06)
Fix pts7 particletemplate/sphere time (%) = 1.90998e-07 (1.07362e-06)
Fix pts8 particletemplate/sphere time (%) = 1.99998e-07 (1.12422e-06)
Fix pdd particledistribution/discrete/numberbased time (%) = 1.99998e-07 (1.12422e-06)
Fix integr nve/sphere time (%) = 0.630984 (3.54685)
Fix csvfile2 print time (%) = 7.6015e-05 (0.000427291)
Fix csvfile3 print time (%) = 1.6792e-05 (9.43901e-05)
Fix move_shear_blades move/mesh time (%) = 0.00230002 (0.0129287)
Fix move_shear_head move/mesh time (%) = 0.00234278 (0.0131691)
Fix contacthistory contacthistory time (%) = 0.0415317 (0.233455)

Nlocal:    419988 ave 419988 max 419988 min
Histogram: 1 0 0 0 0 0 0 0 0 0
Nghost:    0 ave 0 max 0 min
Histogram: 1 0 0 0 0 0 0 0 0 0
Neighs:    2.8757e+06 ave 2.8757e+06 max 2.8757e+06 min
Histogram: 1 0 0 0 0 0 0 0 0 0

Total # of neighbors = 2875695
Ave neighs/atom = 6.84709
Neighbor list builds = 1
Dangerous builds = 0
fix move_shear_blades all move/mesh mesh shear_blades linear 0.0 0.0 -0.1
fix move_shear_head all move/mesh mesh shear_head linear 0.0 0.0 -0.1
fix move_shear_blades all move/mesh mesh shear_blades linear 0.0 0.0 -0.1
fix move_shear_head all move/mesh mesh shear_head linear 0.0 0.0 -0.1
run 100
Setting up run at Tue Mar 29 20:56:10 2022

Memory usage per processor = 338.44 Mbytes
    Step    Atoms         KinEng         Volume           Time 
  190700   419988   0.0024690622     0.00480392          0.004 
  190800   419988  0.00069696379     0.00480392          0.005 
Loop time of 17.9472 on 1 procs for 100 steps with 419988 atoms, finish time Tue Mar 29 20:56:28 2022


Pair  time (%) = 13.8181 (76.993)
Neigh time (%) = 0.372677 (2.07652)
Comm  time (%) = 0.0032717 (0.0182295)
Outpt time (%) = 0.00149659 (0.00833881)
Modfy time (%) = 3.51254 (19.5715)
Other time (%) = 0.239147 (1.3325)
Fix gravi gravity time (%) = 0.160329 (0.893333)
Fix m1 property/global time (%) = 2.90998e-07 (1.62141e-06)
Fix m2 property/global time (%) = 1.00001e-07 (5.57193e-07)
Fix m3 property/global time (%) = 1.09998e-07 (6.12896e-07)
Fix m4 property/global time (%) = 2.59999e-07 (1.44869e-06)
Fix m5 property/global time (%) = 1.00001e-07 (5.57193e-07)
Fix m7 property/global time (%) = 1.11002e-07 (6.18491e-07)
Fix cad mesh/surface/stress time (%) = 0.00319109 (0.0177804)
Fix shear_head mesh/surface/stress time (%) = 0.00312354 (0.017404)
Fix shear_blades mesh/surface/stress time (%) = 0.0024344 (0.0135642)
Fix inface mesh/surface time (%) = 0.00017561 (0.000978479)
Fix granwalls wall/gran time (%) = 2.59792 (14.4753)
Fix wall_neighlist_cad neighlist/mesh time (%) = 0.0134556 (0.0749731)
Fix n_neighs_mesh_cad property/atom time (%) = 6.90998e-07 (3.85016e-06)
Fix tracker_cad contacthistory/mesh time (%) = 0.00784742 (0.043725)
Fix wall_neighlist_shear_head neighlist/mesh time (%) = 0.0161166 (0.0898)
Fix n_neighs_mesh_shear_head property/atom time (%) = 4.40996e-07 (2.45718e-06)
Fix tracker_shear_head contacthistory/mesh time (%) = 0.00398996 (0.0222316)
Fix wall_neighlist_shear_blades neighlist/mesh time (%) = 0.0226512 (0.12621)
Fix n_neighs_mesh_shear_blades property/atom time (%) = 2.30004e-07 (1.28156e-06)
Fix tracker_shear_blades contacthistory/mesh time (%) = 0.00340399 (0.0189666)
Fix pts0 particletemplate/sphere time (%) = 2.90001e-07 (1.61586e-06)
Fix pts1 particletemplate/sphere time (%) = 2.00002e-07 (1.11439e-06)
Fix pts2 particletemplate/sphere time (%) = 1.90001e-07 (1.05866e-06)
Fix pts3 particletemplate/sphere time (%) = 1.10002e-07 (6.12916e-07)
Fix pts4 particletemplate/sphere time (%) = 1.00001e-07 (5.57193e-07)
Fix pts5 particletemplate/sphere time (%) = 1.01001e-07 (5.62767e-07)
Fix pts6 particletemplate/sphere time (%) = 2.79997e-07 (1.56011e-06)
Fix pts7 particletemplate/sphere time (%) = 1.90998e-07 (1.06422e-06)
Fix pts8 particletemplate/sphere time (%) = 1.89997e-07 (1.05864e-06)
Fix pdd particledistribution/discrete/numberbased time (%) = 2.00998e-07 (1.11994e-06)
Fix integr nve/sphere time (%) = 0.631193 (3.51694)
Fix csvfile2 print time (%) = 7.3519e-05 (0.00040964)
Fix csvfile3 print time (%) = 1.7403e-05 (9.69675e-05)
Fix move_shear_blades move/mesh time (%) = 0.0023383 (0.0130288)
Fix move_shear_head move/mesh time (%) = 0.00242591 (0.0135169)
Fix contacthistory contacthistory time (%) = 0.0418466 (0.233165)

Nlocal:    419988 ave 419988 max 419988 min
Histogram: 1 0 0 0 0 0 0 0 0 0
Nghost:    0 ave 0 max 0 min
Histogram: 1 0 0 0 0 0 0 0 0 0
Neighs:    2.88176e+06 ave 2.88176e+06 max 2.88176e+06 min
Histogram: 1 0 0 0 0 0 0 0 0 0

Total # of neighbors = 2881765
Ave neighs/atom = 6.86154
Neighbor list builds = 1
Dangerous builds = 0
fix move_shear_blades all move/mesh mesh shear_blades linear 0.0 0.0 -0.1
fix move_shear_head all move/mesh mesh shear_head linear 0.0 0.0 0.1
fix move_shear_blades all move/mesh mesh shear_blades linear 0.0 0.0 0.1
fix move_shear_head all move/mesh mesh shear_head linear 0.0 0.0 0.1
run 100
Setting up run at Tue Mar 29 20:56:28 2022

Memory usage per processor = 338.44 Mbytes
    Step    Atoms         KinEng         Volume           Time 
  190800   419988  0.00069696379     0.00480392          0.005 
  190900   419988   0.0016063251     0.00480392          0.006 
Loop time of 17.953 on 1 procs for 100 steps with 419988 atoms, finish time Tue Mar 29 20:56:47 2022


Pair  time (%) = 13.8438 (77.1111)
Neigh time (%) = 0.37278 (2.07642)
Comm  time (%) = 0.00325989 (0.0181579)
Outpt time (%) = 0.00150585 (0.00838775)
Modfy time (%) = 3.49111 (19.4458)
Other time (%) = 0.240584 (1.34008)
Fix gravi gravity time (%) = 0.161017 (0.896882)
Fix m1 property/global time (%) = 3.00999e-07 (1.67659e-06)
Fix m2 property/global time (%) = 9.00036e-08 (5.01328e-07)
Fix m3 property/global time (%) = 1.00001e-07 (5.57014e-07)
Fix m4 property/global time (%) = 1.10002e-07 (6.12719e-07)
Fix m5 property/global time (%) = 1.01001e-07 (5.62586e-07)
Fix m7 property/global time (%) = 1.00001e-07 (5.57014e-07)
Fix cad mesh/surface/stress time (%) = 0.00328062 (0.0182734)
Fix shear_head mesh/surface/stress time (%) = 0.0031211 (0.0173848)
Fix shear_blades mesh/surface/stress time (%) = 0.00245141 (0.0136546)
Fix inface mesh/surface time (%) = 0.000178297 (0.000993131)
Fix granwalls wall/gran time (%) = 2.57504 (14.3432)
Fix wall_neighlist_cad neighlist/mesh time (%) = 0.0134175 (0.0747368)
Fix n_neighs_mesh_cad property/atom time (%) = 7.10999e-07 (3.96033e-06)
Fix tracker_cad contacthistory/mesh time (%) = 0.00793514 (0.0441995)
Fix wall_neighlist_shear_head neighlist/mesh time (%) = 0.0164289 (0.0915104)
Fix n_neighs_mesh_shear_head property/atom time (%) = 2.21e-07 (1.23099e-06)
Fix tracker_shear_head contacthistory/mesh time (%) = 0.00416197 (0.0231826)
Fix wall_neighlist_shear_blades neighlist/mesh time (%) = 0.0228633 (0.127351)
Fix n_neighs_mesh_shear_blades property/atom time (%) = 2.32001e-07 (1.29227e-06)
Fix tracker_shear_blades contacthistory/mesh time (%) = 0.00367114 (0.0204486)
Fix pts0 particletemplate/sphere time (%) = 2.80001e-07 (1.55963e-06)
Fix pts1 particletemplate/sphere time (%) = 2.00998e-07 (1.11958e-06)
Fix pts2 particletemplate/sphere time (%) = 1.90001e-07 (1.05832e-06)
Fix pts3 particletemplate/sphere time (%) = 1.11002e-07 (6.18291e-07)
Fix pts4 particletemplate/sphere time (%) = 1.00001e-07 (5.57014e-07)
Fix pts5 particletemplate/sphere time (%) = 1.00001e-07 (5.57014e-07)
Fix pts6 particletemplate/sphere time (%) = 2.81001e-07 (1.5652e-06)
Fix pts7 particletemplate/sphere time (%) = 1.90001e-07 (1.05832e-06)
Fix pts8 particletemplate/sphere time (%) = 1.99998e-07 (1.11401e-06)
Fix pdd particledistribution/discrete/numberbased time (%) = 1.90001e-07 (1.05832e-06)
Fix integr nve/sphere time (%) = 0.631179 (3.51572)
Fix csvfile2 print time (%) = 7.5564e-05 (0.000420898)
Fix csvfile3 print time (%) = 2.4126e-05 (0.000134384)
Fix move_shear_blades move/mesh time (%) = 0.0023659 (0.0131783)
Fix move_shear_head move/mesh time (%) = 0.0023724 (0.0132145)
Fix contacthistory contacthistory time (%) = 0.0415265 (0.231307)

Nlocal:    419988 ave 419988 max 419988 min
Histogram: 1 0 0 0 0 0 0 0 0 0
Nghost:    0 ave 0 max 0 min
Histogram: 1 0 0 0 0 0 0 0 0 0
Neighs:    2.87974e+06 ave 2.87974e+06 max 2.87974e+06 min
Histogram: 1 0 0 0 0 0 0 0 0 0

Total # of neighbors = 2879745
Ave neighs/atom = 6.85673
Neighbor list builds = 1
Dangerous builds = 0
fix move_shear_blades all move/mesh mesh shear_blades linear 0.0 0.0 0.1
fix move_shear_head all move/mesh mesh shear_head linear 0.0 0.0 -0.1
fix move_shear_blades all move/mesh mesh shear_blades linear 0.0 0.0 -0.1
fix move_shear_head all move/mesh mesh shear_head linear 0.0 0.0 -0.1
run 100
Setting up run at Tue Mar 29 20:56:47 2022

Memory usage per processor = 339.584 Mbytes
    Step    Atoms         KinEng         Volume           Time 
  190900   419988   0.0016063251     0.00480392          0.006 
  191000   419988   0.0024426401     0.00480392          0.007 
Loop time of 17.9968 on 1 procs for 100 steps with 419988 atoms, finish time Tue Mar 29 20:57:06 2022


Pair  time (%) = 13.8305 (76.85)
Neigh time (%) = 0.369583 (2.0536)
Comm  time (%) = 0.0032658 (0.0181466)
Outpt time (%) = 0.00174193 (0.00967912)
Modfy time (%) = 3.55198 (19.7367)
Other time (%) = 0.239705 (1.33193)
Fix gravi gravity time (%) = 0.160925 (0.894184)
Fix m1 property/global time (%) = 3.50999e-07 (1.95034e-06)
Fix m2 property/global time (%) = 1.09998e-07 (6.11208e-07)
Fix m3 property/global time (%) = 1.00001e-07 (5.55658e-07)
Fix m4 property/global time (%) = 1.19999e-07 (6.66778e-07)
Fix m5 property/global time (%) = 1.00001e-07 (5.55658e-07)
Fix m7 property/global time (%) = 9.99971e-08 (5.55638e-07)
Fix cad mesh/surface/stress time (%) = 0.00321389 (0.0178581)
Fix shear_head mesh/surface/stress time (%) = 0.00313608 (0.0174257)
Fix shear_blades mesh/surface/stress time (%) = 0.00245246 (0.0136272)
Fix inface mesh/surface time (%) = 0.000170689 (0.00094844)
Fix granwalls wall/gran time (%) = 2.63562 (14.6449)
Fix wall_neighlist_cad neighlist/mesh time (%) = 0.0133699 (0.0742902)
Fix n_neighs_mesh_cad property/atom time (%) = 6.29996e-07 (3.5006e-06)
Fix tracker_cad contacthistory/mesh time (%) = 0.00798387 (0.0443627)
Fix wall_neighlist_shear_head neighlist/mesh time (%) = 0.0161021 (0.0894721)
Fix n_neighs_mesh_shear_head property/atom time (%) = 2.20003e-07 (1.22246e-06)
Fix tracker_shear_head contacthistory/mesh time (%) = 0.00401193 (0.0222924)
Fix wall_neighlist_shear_blades neighlist/mesh time (%) = 0.0225901 (0.125523)
Fix n_neighs_mesh_shear_blades property/atom time (%) = 2.40005e-07 (1.3336e-06)
Fix tracker_shear_blades contacthistory/mesh time (%) = 0.00341595 (0.0189809)
Fix pts0 particletemplate/sphere time (%) = 2.81001e-07 (1.56139e-06)
Fix pts1 particletemplate/sphere time (%) = 1.90001e-07 (1.05575e-06)
Fix pts2 particletemplate/sphere time (%) = 2.10002e-07 (1.16689e-06)
Fix pts3 particletemplate/sphere time (%) = 1.00001e-07 (5.55658e-07)
Fix pts4 particletemplate/sphere time (%) = 1.10002e-07 (6.11228e-07)
Fix pts5 particletemplate/sphere time (%) = 1.10002e-07 (6.11228e-07)
Fix pts6 particletemplate/sphere time (%) = 3.31002e-07 (1.83922e-06)
Fix pts7 particletemplate/sphere time (%) = 1.90001e-07 (1.05575e-06)
Fix pts8 particletemplate/sphere time (%) = 1.91001e-07 (1.06131e-06)
Fix pdd particledistribution/discrete/numberbased time (%) = 2.00002e-07 (1.11132e-06)
Fix integr nve/sphere time (%) = 0.633129 (3.51801)
Fix csvfile2 print time (%) = 8.0853e-05 (0.000449263)
Fix csvfile3 print time (%) = 1.8045e-05 (0.000100268)
Fix move_shear_blades move/mesh time (%) = 0.00240083 (0.0133403)
Fix move_shear_head move/mesh time (%) = 0.00239719 (0.0133201)
Fix contacthistory contacthistory time (%) = 0.0409539 (0.227562)

Nlocal:    419988 ave 419988 max 419988 min
Histogram: 1 0 0 0 0 0 0 0 0 0
Nghost:    0 ave 0 max 0 min
Histogram: 1 0 0 0 0 0 0 0 0 0
Neighs:    2.88143e+06 ave 2.88143e+06 max 2.88143e+06 min
Histogram: 1 0 0 0 0 0 0 0 0 0

Total # of neighbors = 2881431
Ave neighs/atom = 6.86075
Neighbor list builds = 1
Dangerous builds = 0
fix move_shear_blades all move/mesh mesh shear_blades linear 0.0 0.0 -0.1
fix move_shear_head all move/mesh mesh shear_head linear 0.0 0.0 -0.015313301386604791
fix move_shear_blades all move/mesh mesh shear_blades linear 0.0 0.0 -0.015313301386604791
fix move_shear_head all move/mesh mesh shear_head linear 0.0 0.0 -0.015313301386604791
run 100
Setting up run at Tue Mar 29 20:57:06 2022

Memory usage per processor = 339.584 Mbytes
    Step    Atoms         KinEng         Volume           Time 
  191000   419988   0.0024426401     0.00480392          0.007 
  191100   419988    0.001072297     0.00480392          0.008 
Loop time of 18.0615 on 1 procs for 100 steps with 419988 atoms, finish time Tue Mar 29 20:57:25 2022


Pair  time (%) = 13.9468 (77.2187)
Neigh time (%) = 0.372083 (2.06009)
Comm  time (%) = 0.00327521 (0.0181337)
Outpt time (%) = 0.00149454 (0.00827477)
Modfy time (%) = 3.49812 (19.3679)
Other time (%) = 0.239654 (1.32688)
Fix gravi gravity time (%) = 0.16082 (0.890406)
Fix m1 property/global time (%) = 2.90998e-07 (1.61116e-06)
Fix m2 property/global time (%) = 9e-08 (4.98299e-07)
Fix m3 property/global time (%) = 1.10002e-07 (6.0904e-07)
Fix m4 property/global time (%) = 1.10002e-07 (6.0904e-07)
Fix m5 property/global time (%) = 1.01001e-07 (5.59209e-07)
Fix m7 property/global time (%) = 1.10002e-07 (6.0904e-07)
Fix cad mesh/surface/stress time (%) = 0.00316515 (0.0175244)
Fix shear_head mesh/surface/stress time (%) = 0.00315101 (0.017446)
Fix shear_blades mesh/surface/stress time (%) = 0.00244817 (0.0135547)
Fix inface mesh/surface time (%) = 0.000177471 (0.000982595)
Fix granwalls wall/gran time (%) = 2.58285 (14.3004)
Fix wall_neighlist_cad neighlist/mesh time (%) = 0.0134303 (0.074359)
Fix n_neighs_mesh_cad property/atom time (%) = 7.10999e-07 (3.93656e-06)
Fix tracker_cad contacthistory/mesh time (%) = 0.00784891 (0.0434567)
Fix wall_neighlist_shear_head neighlist/mesh time (%) = 0.0157086 (0.0869733)
Fix n_neighs_mesh_shear_head property/atom time (%) = 2.10002e-07 (1.16271e-06)
Fix tracker_shear_head contacthistory/mesh time (%) = 0.00386259 (0.0213858)
Fix wall_neighlist_shear_blades neighlist/mesh time (%) = 0.0224022 (0.124033)
Fix n_neighs_mesh_shear_blades property/atom time (%) = 2.39997e-07 (1.32878e-06)
Fix tracker_shear_blades contacthistory/mesh time (%) = 0.00337346 (0.0186777)
Fix pts0 particletemplate/sphere time (%) = 2.80997e-07 (1.55579e-06)
Fix pts1 particletemplate/sphere time (%) = 1.90001e-07 (1.05197e-06)
Fix pts2 particletemplate/sphere time (%) = 1.90001e-07 (1.05197e-06)
Fix pts3 particletemplate/sphere time (%) = 1.11002e-07 (6.1458e-07)
Fix pts4 particletemplate/sphere time (%) = 1.00001e-07 (5.5367e-07)
Fix pts5 particletemplate/sphere time (%) = 1.00001e-07 (5.5367e-07)
Fix pts6 particletemplate/sphere time (%) = 2.81001e-07 (1.55581e-06)
Fix pts7 particletemplate/sphere time (%) = 1.90001e-07 (1.05197e-06)
Fix pts8 particletemplate/sphere time (%) = 2.00998e-07 (1.11286e-06)
Fix pdd particledistribution/discrete/numberbased time (%) = 1.99998e-07 (1.10732e-06)
Fix integr nve/sphere time (%) = 0.632004 (3.49919)
Fix csvfile2 print time (%) = 7.4971e-05 (0.000415088)
Fix csvfile3 print time (%) = 1.4407e-05 (7.97666e-05)
Fix move_shear_blades move/mesh time (%) = 0.00236876 (0.013115)
Fix move_shear_head move/mesh time (%) = 0.00236466 (0.0130923)
Fix contacthistory contacthistory time (%) = 0.0420494 (0.232813)

Nlocal:    419988 ave 419988 max 419988 min
Histogram: 1 0 0 0 0 0 0 0 0 0
Nghost:    0 ave 0 max 0 min
Histogram: 1 0 0 0 0 0 0 0 0 0
Neighs:    2.88512e+06 ave 2.88512e+06 max 2.88512e+06 min
Histogram: 1 0 0 0 0 0 0 0 0 0

Total # of neighbors = 2885125
Ave neighs/atom = 6.86954
Neighbor list builds = 1
Dangerous builds = 0
fix move_shear_blades all move/mesh mesh shear_blades linear 0.0 0.0 -0.015313301386604791
fix move_shear_head all move/mesh mesh shear_head linear 0.0 0.0 -0.02767950570928768
fix move_shear_blades all move/mesh mesh shear_blades linear 0.0 0.0 -0.02767950570928768
fix move_shear_head all move/mesh mesh shear_head linear 0.0 0.0 -0.02767950570928768
run 100
Setting up run at Tue Mar 29 20:57:25 2022

Memory usage per processor = 339.584 Mbytes
    Step    Atoms         KinEng         Volume           Time 
  191100   419988    0.001072297     0.00480392          0.008 
  191200   419988    0.001003274     0.00480392          0.009 
Loop time of 18.05 on 1 procs for 100 steps with 419988 atoms, finish time Tue Mar 29 20:57:44 2022


Pair  time (%) = 13.9112 (77.0704)
Neigh time (%) = 0.371494 (2.05813)
Comm  time (%) = 0.00321784 (0.0178273)
Outpt time (%) = 0.00148821 (0.00824492)
Modfy time (%) = 3.52261 (19.5158)
Other time (%) = 0.239996 (1.32962)
Fix gravi gravity time (%) = 0.16089 (0.891354)
Fix m1 property/global time (%) = 2.90998e-07 (1.61217e-06)
Fix m2 property/global time (%) = 1.00001e-07 (5.54019e-07)
Fix m3 property/global time (%) = 1.10998e-07 (6.14948e-07)
Fix m4 property/global time (%) = 1.10002e-07 (6.09425e-07)
Fix m5 property/global time (%) = 1.00001e-07 (5.54019e-07)
Fix m7 property/global time (%) = 1.10002e-07 (6.09425e-07)
Fix cad mesh/surface/stress time (%) = 0.00316192 (0.0175175)
Fix shear_head mesh/surface/stress time (%) = 0.0031436 (0.017416)
Fix shear_blades mesh/surface/stress time (%) = 0.00243404 (0.013485)
Fix inface mesh/surface time (%) = 0.000175141 (0.000970308)
Fix granwalls wall/gran time (%) = 2.60627 (14.4391)
Fix wall_neighlist_cad neighlist/mesh time (%) = 0.0134208 (0.0743533)
Fix n_neighs_mesh_cad property/atom time (%) = 1.051e-06 (5.82269e-06)
Fix tracker_cad contacthistory/mesh time (%) = 0.00798172 (0.0442199)
Fix wall_neighlist_shear_head neighlist/mesh time (%) = 0.0156963 (0.0869601)
Fix n_neighs_mesh_shear_head property/atom time (%) = 2.11003e-07 (1.16899e-06)
Fix tracker_shear_head contacthistory/mesh time (%) = 0.00436261 (0.0241695)
Fix wall_neighlist_shear_blades neighlist/mesh time (%) = 0.022241 (0.123218)
Fix n_neighs_mesh_shear_blades property/atom time (%) = 2.19996e-07 (1.21881e-06)
Fix tracker_shear_blades contacthistory/mesh time (%) = 0.00338115 (0.0187321)
Fix pts0 particletemplate/sphere time (%) = 2.89998e-07 (1.60663e-06)
Fix pts1 particletemplate/sphere time (%) = 2.00998e-07 (1.11356e-06)
Fix pts2 particletemplate/sphere time (%) = 1.90001e-07 (1.05263e-06)
Fix pts3 particletemplate/sphere time (%) = 1.00001e-07 (5.54019e-07)
Fix pts4 particletemplate/sphere time (%) = 1.01001e-07 (5.59562e-07)
Fix pts5 particletemplate/sphere time (%) = 1.00001e-07 (5.54019e-07)
Fix pts6 particletemplate/sphere time (%) = 2.80001e-07 (1.55125e-06)
Fix pts7 particletemplate/sphere time (%) = 1.90001e-07 (1.05263e-06)
Fix pts8 particletemplate/sphere time (%) = 1.90001e-07 (1.05263e-06)
Fix pdd particledistribution/discrete/numberbased time (%) = 2.01002e-07 (1.11358e-06)
Fix integr nve/sphere time (%) = 0.632389 (3.50353)
Fix csvfile2 print time (%) = 7.0895e-05 (0.000392769)
Fix csvfile3 print time (%) = 1.4989e-05 (8.30413e-05)
Fix move_shear_blades move/mesh time (%) = 0.00233118 (0.0129151)
Fix move_shear_head move/mesh time (%) = 0.00238366 (0.0132058)
Fix contacthistory contacthistory time (%) = 0.0422598 (0.234125)

Nlocal:    419988 ave 419988 max 419988 min
Histogram: 1 0 0 0 0 0 0 0 0 0
Nghost:    0 ave 0 max 0 min
Histogram: 1 0 0 0 0 0 0 0 0 0
Neighs:    2.88537e+06 ave 2.88537e+06 max 2.88537e+06 min
Histogram: 1 0 0 0 0 0 0 0 0 0

Total # of neighbors = 2885371
Ave neighs/atom = 6.87013
Neighbor list builds = 1
Dangerous builds = 0
fix move_shear_blades all move/mesh mesh shear_blades linear 0.0 0.0 -0.02767950570928768
fix move_shear_head all move/mesh mesh shear_head linear 0.0 0.0 0.1
fix move_shear_blades all move/mesh mesh shear_blades linear 0.0 0.0 0.1
fix move_shear_head all move/mesh mesh shear_head linear 0.0 0.0 0.1
run 100
Setting up run at Tue Mar 29 20:57:44 2022

Memory usage per processor = 339.584 Mbytes
    Step    Atoms         KinEng         Volume           Time 
  191200   419988    0.001003274     0.00480392          0.009 
  191300   419988   0.0019709289     0.00480392           0.01 
Loop time of 18.0192 on 1 procs for 100 steps with 419988 atoms, finish time Tue Mar 29 20:58:03 2022


Pair  time (%) = 13.9258 (77.2829)
Neigh time (%) = 0.370371 (2.05542)
Comm  time (%) = 0.00322944 (0.0179222)
Outpt time (%) = 0.00148913 (0.00826408)
Modfy time (%) = 3.47834 (19.3035)
Other time (%) = 0.240024 (1.33204)
Fix gravi gravity time (%) = 0.160018 (0.888041)
Fix m1 property/global time (%) = 2.90998e-07 (1.61493e-06)
Fix m2 property/global time (%) = 9.99971e-08 (5.54946e-07)
Fix m3 property/global time (%) = 1.00001e-07 (5.54966e-07)
Fix m4 property/global time (%) = 1.09998e-07 (6.10447e-07)
Fix m5 property/global time (%) = 1.10998e-07 (6.15999e-07)
Fix m7 property/global time (%) = 1.09998e-07 (6.10447e-07)
Fix cad mesh/surface/stress time (%) = 0.00318834 (0.0176941)
Fix shear_head mesh/surface/stress time (%) = 0.00316193 (0.0175475)
Fix shear_blades mesh/surface/stress time (%) = 0.00261149 (0.0144928)
Fix inface mesh/surface time (%) = 0.000174473 (0.000968259)
Fix granwalls wall/gran time (%) = 2.56091 (14.2121)
Fix wall_neighlist_cad neighlist/mesh time (%) = 0.0133425 (0.0740456)
Fix n_neighs_mesh_cad property/atom time (%) = 6.90998e-07 (3.83478e-06)
Fix tracker_cad contacthistory/mesh time (%) = 0.00791309 (0.0439147)
Fix wall_neighlist_shear_head neighlist/mesh time (%) = 0.016069 (0.0891767)
Fix n_neighs_mesh_shear_head property/atom time (%) = 2.10999e-07 (1.17097e-06)
Fix tracker_shear_head contacthistory/mesh time (%) = 0.00422637 (0.0234548)
Fix wall_neighlist_shear_blades neighlist/mesh time (%) = 0.0225106 (0.124925)
Fix n_neighs_mesh_shear_blades property/atom time (%) = 2.20996e-07 (1.22645e-06)
Fix tracker_shear_blades contacthistory/mesh time (%) = 0.00332324 (0.0184427)
Fix pts0 particletemplate/sphere time (%) = 2.90001e-07 (1.6094e-06)
Fix pts1 particletemplate/sphere time (%) = 2.00002e-07 (1.10993e-06)
Fix pts2 particletemplate/sphere time (%) = 4.61001e-07 (2.55838e-06)
Fix pts3 particletemplate/sphere time (%) = 1.10002e-07 (6.10467e-07)
Fix pts4 particletemplate/sphere time (%) = 1.10002e-07 (6.10467e-07)
Fix pts5 particletemplate/sphere time (%) = 1.21003e-07 (6.7152e-07)
Fix pts6 particletemplate/sphere time (%) = 2.80001e-07 (1.5539e-06)
Fix pts7 particletemplate/sphere time (%) = 1.91001e-07 (1.05998e-06)
Fix pts8 particletemplate/sphere time (%) = 1.90001e-07 (1.05443e-06)
Fix pdd particledistribution/discrete/numberbased time (%) = 2.00002e-07 (1.10993e-06)
Fix integr nve/sphere time (%) = 0.632889 (3.5123)
Fix csvfile2 print time (%) = 7.1805e-05 (0.000398491)
Fix csvfile3 print time (%) = 1.4939e-05 (8.29058e-05)
Fix move_shear_blades move/mesh time (%) = 0.00240908 (0.0133695)
Fix move_shear_head move/mesh time (%) = 0.00241004 (0.0133748)
Fix contacthistory contacthistory time (%) = 0.0430933 (0.239152)

Nlocal:    419988 ave 419988 max 419988 min
Histogram: 1 0 0 0 0 0 0 0 0 0
Nghost:    0 ave 0 max 0 min
Histogram: 1 0 0 0 0 0 0 0 0 0
Neighs:    2.88268e+06 ave 2.88268e+06 max 2.88268e+06 min
Histogram: 1 0 0 0 0 0 0 0 0 0

Total # of neighbors = 2882682
Ave neighs/atom = 6.86372
Neighbor list builds = 1
Dangerous builds = 0
run 100
Setting up run at Tue Mar 29 20:58:03 2022

Memory usage per processor = 339.584 Mbytes
    Step    Atoms         KinEng         Volume           Time 
  191300   419988   0.0019709289     0.00480392           0.01 
  191400   419988   0.0029699064     0.00480392          0.011 
Loop time of 17.8489 on 1 procs for 100 steps with 419988 atoms, finish time Tue Mar 29 20:58:22 2022


Pair  time (%) = 13.7539 (77.0573)
Neigh time (%) = 0.372178 (2.08516)
Comm  time (%) = 0.00325887 (0.0182581)
Outpt time (%) = 0.0014864 (0.00832767)
Modfy time (%) = 3.47882 (19.4904)
Other time (%) = 0.239275 (1.34056)
Fix gravi gravity time (%) = 0.160282 (0.897992)
Fix m1 property/global time (%) = 2.80001e-07 (1.56872e-06)
Fix m2 property/global time (%) = 1.00001e-07 (5.60262e-07)
Fix m3 property/global time (%) = 1.10002e-07 (6.16292e-07)
Fix m4 property/global time (%) = 1.10002e-07 (6.16292e-07)
Fix m5 property/global time (%) = 1.01001e-07 (5.65867e-07)
Fix m7 property/global time (%) = 1.09998e-07 (6.16271e-07)
Fix cad mesh/surface/stress time (%) = 0.00317742 (0.0178017)
Fix shear_head mesh/surface/stress time (%) = 0.00312991 (0.0175356)
Fix shear_blades mesh/surface/stress time (%) = 0.00247659 (0.0138753)
Fix inface mesh/surface time (%) = 0.000172211 (0.000964825)
Fix granwalls wall/gran time (%) = 2.56239 (14.356)
Fix wall_neighlist_cad neighlist/mesh time (%) = 0.0133765 (0.0749428)
Fix n_neighs_mesh_cad property/atom time (%) = 6.20999e-07 (3.47919e-06)
Fix tracker_cad contacthistory/mesh time (%) = 0.00793995 (0.0444841)
Fix wall_neighlist_shear_head neighlist/mesh time (%) = 0.0170417 (0.0954772)
Fix n_neighs_mesh_shear_head property/atom time (%) = 2.00998e-07 (1.12611e-06)
Fix tracker_shear_head contacthistory/mesh time (%) = 0.00411307 (0.0230438)
Fix wall_neighlist_shear_blades neighlist/mesh time (%) = 0.0233636 (0.130896)
Fix n_neighs_mesh_shear_blades property/atom time (%) = 2.29997e-07 (1.28857e-06)
Fix tracker_shear_blades contacthistory/mesh time (%) = 0.00332035 (0.0186025)
Fix pts0 particletemplate/sphere time (%) = 2.90998e-07 (1.63034e-06)
Fix pts1 particletemplate/sphere time (%) = 1.89997e-07 (1.06447e-06)
Fix pts2 particletemplate/sphere time (%) = 1.90998e-07 (1.07008e-06)
Fix pts3 particletemplate/sphere time (%) = 9.99971e-08 (5.60241e-07)
Fix pts4 particletemplate/sphere time (%) = 1.09998e-07 (6.16271e-07)
Fix pts5 particletemplate/sphere time (%) = 1.00001e-07 (5.60262e-07)
Fix pts6 particletemplate/sphere time (%) = 4.20998e-07 (2.35867e-06)
Fix pts7 particletemplate/sphere time (%) = 1.90998e-07 (1.07008e-06)
Fix pts8 particletemplate/sphere time (%) = 1.99998e-07 (1.1205e-06)
Fix pdd particledistribution/discrete/numberbased time (%) = 2.00002e-07 (1.12052e-06)
Fix integr nve/sphere time (%) = 0.631414 (3.53754)
Fix csvfile2 print time (%) = 7.2186e-05 (0.000404427)
Fix csvfile3 print time (%) = 1.3847e-05 (7.75788e-05)
Fix move_shear_blades move/mesh time (%) = 0.00233464 (0.01308)
Fix move_shear_head move/mesh time (%) = 0.00237391 (0.0133)
Fix contacthistory contacthistory time (%) = 0.0418268 (0.234337)

Nlocal:    419988 ave 419988 max 419988 min
Histogram: 1 0 0 0 0 0 0 0 0 0
Nghost:    0 ave 0 max 0 min
Histogram: 1 0 0 0 0 0 0 0 0 0
Neighs:    2.8753e+06 ave 2.8753e+06 max 2.8753e+06 min
Histogram: 1 0 0 0 0 0 0 0 0 0

Total # of neighbors = 2875299
Ave neighs/atom = 6.84615
Neighbor list builds = 1
Dangerous builds = 0
fix move_shear_blades all move/mesh mesh shear_blades linear 0.0 0.0 0.1
fix move_shear_head all move/mesh mesh shear_head linear 0.0 0.0 -0.00499871685157584
fix move_shear_blades all move/mesh mesh shear_blades linear 0.0 0.0 -0.00499871685157584
fix move_shear_head all move/mesh mesh shear_head linear 0.0 0.0 -0.00499871685157584
run 100
Setting up run at Tue Mar 29 20:58:22 2022

Memory usage per processor = 339.584 Mbytes
    Step    Atoms         KinEng         Volume           Time 
  191400   419988   0.0029699064     0.00480392          0.011 
  191500   419988  0.00083686004     0.00480392          0.012 
Loop time of 17.7464 on 1 procs for 100 steps with 419988 atoms, finish time Tue Mar 29 20:58:40 2022


Pair  time (%) = 13.6254 (76.7785)
Neigh time (%) = 0.371877 (2.09551)
Comm  time (%) = 0.00323822 (0.0182472)
Outpt time (%) = 0.00150377 (0.0084737)
Modfy time (%) = 3.50534 (19.7524)
Other time (%) = 0.239015 (1.34684)
Fix gravi gravity time (%) = 0.16093 (0.906836)
Fix m1 property/global time (%) = 2.90998e-07 (1.63976e-06)
Fix m2 property/global time (%) = 1.09998e-07 (6.19834e-07)
Fix m3 property/global time (%) = 4.20998e-07 (2.3723e-06)
Fix m4 property/global time (%) = 1.10002e-07 (6.19854e-07)
Fix m5 property/global time (%) = 1.09998e-07 (6.19834e-07)
Fix m7 property/global time (%) = 1.00998e-07 (5.69117e-07)
Fix cad mesh/surface/stress time (%) = 0.0031178 (0.0175687)
Fix shear_head mesh/surface/stress time (%) = 0.00312264 (0.0175959)
Fix shear_blades mesh/surface/stress time (%) = 0.0024293 (0.013689)
Fix inface mesh/surface time (%) = 0.000179505 (0.0010115)
Fix granwalls wall/gran time (%) = 2.5902 (14.5957)
Fix wall_neighlist_cad neighlist/mesh time (%) = 0.0133697 (0.0753375)
Fix n_neighs_mesh_cad property/atom time (%) = 7.13e-07 (4.01773e-06)
Fix tracker_cad contacthistory/mesh time (%) = 0.00771477 (0.0434724)
Fix wall_neighlist_shear_head neighlist/mesh time (%) = 0.0171956 (0.0968963)
Fix n_neighs_mesh_shear_head property/atom time (%) = 2.19999e-07 (1.23969e-06)
Fix tracker_shear_head contacthistory/mesh time (%) = 0.00424392 (0.0239143)
Fix wall_neighlist_shear_blades neighlist/mesh time (%) = 0.0234609 (0.132201)
Fix n_neighs_mesh_shear_blades property/atom time (%) = 2.10999e-07 (1.18897e-06)
Fix tracker_shear_blades contacthistory/mesh time (%) = 0.00337539 (0.0190202)
Fix pts0 particletemplate/sphere time (%) = 2.90998e-07 (1.63976e-06)
Fix pts1 particletemplate/sphere time (%) = 1.99998e-07 (1.12698e-06)
Fix pts2 particletemplate/sphere time (%) = 1.90001e-07 (1.07065e-06)
Fix pts3 particletemplate/sphere time (%) = 1.11002e-07 (6.25492e-07)
Fix pts4 particletemplate/sphere time (%) = 1.00001e-07 (5.635e-07)
Fix pts5 particletemplate/sphere time (%) = 1.00001e-07 (5.635e-07)
Fix pts6 particletemplate/sphere time (%) = 2.81001e-07 (1.58343e-06)
Fix pts7 particletemplate/sphere time (%) = 1.8e-07 (1.01429e-06)
Fix pts8 particletemplate/sphere time (%) = 1.90998e-07 (1.07626e-06)
Fix pdd particledistribution/discrete/numberbased time (%) = 1.99998e-07 (1.12698e-06)
Fix integr nve/sphere time (%) = 0.630824 (3.55467)
Fix csvfile2 print time (%) = 7.8419e-05 (0.000441888)
Fix csvfile3 print time (%) = 1.4007e-05 (7.89289e-05)
Fix move_shear_blades move/mesh time (%) = 0.00232329 (0.0130916)
Fix move_shear_head move/mesh time (%) = 0.00239748 (0.0135097)
Fix contacthistory contacthistory time (%) = 0.0403574 (0.227412)

Nlocal:    419988 ave 419988 max 419988 min
Histogram: 1 0 0 0 0 0 0 0 0 0
Nghost:    0 ave 0 max 0 min
Histogram: 1 0 0 0 0 0 0 0 0 0
Neighs:    2.87382e+06 ave 2.87382e+06 max 2.87382e+06 min
Histogram: 1 0 0 0 0 0 0 0 0 0

Total # of neighbors = 2873817
Ave neighs/atom = 6.84262
Neighbor list builds = 1
Dangerous builds = 0
fix move_shear_blades all move/mesh mesh shear_blades linear 0.0 0.0 -0.00499871685157584
fix move_shear_head all move/mesh mesh shear_head linear 0.0 0.0 0.011833957339822678
fix move_shear_blades all move/mesh mesh shear_blades linear 0.0 0.0 0.011833957339822678
fix move_shear_head all move/mesh mesh shear_head linear 0.0 0.0 0.011833957339822678
run 100
Setting up run at Tue Mar 29 20:58:40 2022

Memory usage per processor = 339.584 Mbytes
    Step    Atoms         KinEng         Volume           Time 
  191500   419988  0.00083686004     0.00480392          0.012 
  191600   419988   0.0010704787     0.00480392          0.013 
Loop time of 17.7156 on 1 procs for 100 steps with 419988 atoms, finish time Tue Mar 29 20:58:59 2022


Pair  time (%) = 13.5904 (76.7143)
Neigh time (%) = 0.367271 (2.07315)
Comm  time (%) = 0.00326059 (0.0184052)
Outpt time (%) = 0.00148941 (0.00840733)
Modfy time (%) = 3.51394 (19.8353)
Other time (%) = 0.239237 (1.35043)
Fix gravi gravity time (%) = 0.160317 (0.904948)
Fix m1 property/global time (%) = 2.91002e-07 (1.64263e-06)
Fix m2 property/global time (%) = 1.00001e-07 (5.6448e-07)
Fix m3 property/global time (%) = 1.10002e-07 (6.20932e-07)
Fix m4 property/global time (%) = 1.10002e-07 (6.20932e-07)
Fix m5 property/global time (%) = 1.11002e-07 (6.26579e-07)
Fix m7 property/global time (%) = 1.00001e-07 (5.6448e-07)
Fix cad mesh/surface/stress time (%) = 0.00318181 (0.0179605)
Fix shear_head mesh/surface/stress time (%) = 0.00310606 (0.017533)
Fix shear_blades mesh/surface/stress time (%) = 0.00245112 (0.013836)
Fix inface mesh/surface time (%) = 0.000172264 (0.000972388)
Fix granwalls wall/gran time (%) = 2.59881 (14.6696)
Fix wall_neighlist_cad neighlist/mesh time (%) = 0.0134048 (0.0756665)
Fix n_neighs_mesh_cad property/atom time (%) = 7.00998e-07 (3.95696e-06)
Fix tracker_cad contacthistory/mesh time (%) = 0.00772518 (0.0436067)
Fix wall_neighlist_shear_head neighlist/mesh time (%) = 0.0172355 (0.09729)
Fix n_neighs_mesh_shear_head property/atom time (%) = 2.10002e-07 (1.18541e-06)
Fix tracker_shear_head contacthistory/mesh time (%) = 0.00390597 (0.0220482)
Fix wall_neighlist_shear_blades neighlist/mesh time (%) = 0.0234196 (0.132198)
Fix n_neighs_mesh_shear_blades property/atom time (%) = 2.19999e-07 (1.24184e-06)
Fix tracker_shear_blades contacthistory/mesh time (%) = 0.00338822 (0.0191257)
Fix pts0 particletemplate/sphere time (%) = 2.81001e-07 (1.58618e-06)
Fix pts1 particletemplate/sphere time (%) = 1.89997e-07 (1.07249e-06)
Fix pts2 particletemplate/sphere time (%) = 2.00998e-07 (1.13459e-06)
Fix pts3 particletemplate/sphere time (%) = 1.00001e-07 (5.6448e-07)
Fix pts4 particletemplate/sphere time (%) = 1.09998e-07 (6.20911e-07)
Fix pts5 particletemplate/sphere time (%) = 1.20002e-07 (6.77384e-07)
Fix pts6 particletemplate/sphere time (%) = 2.80001e-07 (1.58053e-06)
Fix pts7 particletemplate/sphere time (%) = 1.90001e-07 (1.07251e-06)
Fix pts8 particletemplate/sphere time (%) = 2.00002e-07 (1.12896e-06)
Fix pdd particledistribution/discrete/numberbased time (%) = 1.99998e-07 (1.12894e-06)
Fix integr nve/sphere time (%) = 0.631513 (3.56473)
Fix csvfile2 print time (%) = 6.8059e-05 (0.000384176)
Fix csvfile3 print time (%) = 1.4587e-05 (8.234e-05)
Fix move_shear_blades move/mesh time (%) = 0.00239797 (0.0135359)
Fix move_shear_head move/mesh time (%) = 0.00235149 (0.0132736)
Fix contacthistory contacthistory time (%) = 0.0404782 (0.22849)

Nlocal:    419988 ave 419988 max 419988 min
Histogram: 1 0 0 0 0 0 0 0 0 0
Nghost:    0 ave 0 max 0 min
Histogram: 1 0 0 0 0 0 0 0 0 0
Neighs:    2.87364e+06 ave 2.87364e+06 max 2.87364e+06 min
Histogram: 1 0 0 0 0 0 0 0 0 0

Total # of neighbors = 2873635
Ave neighs/atom = 6.84218
Neighbor list builds = 1
Dangerous builds = 0
fix move_shear_blades all move/mesh mesh shear_blades linear 0.0 0.0 0.011833957339822678
fix move_shear_head all move/mesh mesh shear_head linear 0.0 0.0 0.008380376717624496
fix move_shear_blades all move/mesh mesh shear_blades linear 0.0 0.0 0.008380376717624496
fix move_shear_head all move/mesh mesh shear_head linear 0.0 0.0 0.008380376717624496
run 100
Setting up run at Tue Mar 29 20:58:59 2022

Memory usage per processor = 339.584 Mbytes
    Step    Atoms         KinEng         Volume           Time 
  191600   419988   0.0010704787     0.00480392          0.013 
  191700   419988  0.00093183514     0.00480392          0.014 
Loop time of 17.7015 on 1 procs for 100 steps with 419988 atoms, finish time Tue Mar 29 20:59:17 2022


Pair  time (%) = 13.5677 (76.6474)
Neigh time (%) = 0.372112 (2.10216)
Comm  time (%) = 0.00322284 (0.0182066)
Outpt time (%) = 0.00149414 (0.00844076)
Modfy time (%) = 3.51753 (19.8714)
Other time (%) = 0.239397 (1.35241)
Fix gravi gravity time (%) = 0.160289 (0.905511)
Fix m1 property/global time (%) = 2.90001e-07 (1.63829e-06)
Fix m2 property/global time (%) = 1.01001e-07 (5.70581e-07)
Fix m3 property/global time (%) = 1.00001e-07 (5.64929e-07)
Fix m4 property/global time (%) = 1.10002e-07 (6.21427e-07)
Fix m5 property/global time (%) = 1.00001e-07 (5.64929e-07)
Fix m7 property/global time (%) = 1.01001e-07 (5.70581e-07)
Fix cad mesh/surface/stress time (%) = 0.00314419 (0.0177623)
Fix shear_head mesh/surface/stress time (%) = 0.00314664 (0.0177762)
Fix shear_blades mesh/surface/stress time (%) = 0.00243459 (0.0137536)
Fix inface mesh/surface time (%) = 0.000183731 (0.00103794)
Fix granwalls wall/gran time (%) = 2.60266 (14.7031)
Fix wall_neighlist_cad neighlist/mesh time (%) = 0.0135602 (0.076605)
Fix n_neighs_mesh_cad property/atom time (%) = 7.41999e-07 (4.19174e-06)
Fix tracker_cad contacthistory/mesh time (%) = 0.00801736 (0.0452921)
Fix wall_neighlist_shear_head neighlist/mesh time (%) = 0.0171067 (0.0966401)
Fix n_neighs_mesh_shear_head property/atom time (%) = 2.21e-07 (1.24848e-06)
Fix tracker_shear_head contacthistory/mesh time (%) = 0.00412641 (0.0233111)
Fix wall_neighlist_shear_blades neighlist/mesh time (%) = 0.0233477 (0.131897)
Fix n_neighs_mesh_shear_blades property/atom time (%) = 2.19996e-07 (1.24281e-06)
Fix tracker_shear_blades contacthistory/mesh time (%) = 0.00337495 (0.0190659)
Fix pts0 particletemplate/sphere time (%) = 2.80997e-07 (1.58743e-06)
Fix pts1 particletemplate/sphere time (%) = 1.89997e-07 (1.07334e-06)
Fix pts2 particletemplate/sphere time (%) = 1.90001e-07 (1.07336e-06)
Fix pts3 particletemplate/sphere time (%) = 1.00001e-07 (5.64929e-07)
Fix pts4 particletemplate/sphere time (%) = 1.00001e-07 (5.64929e-07)
Fix pts5 particletemplate/sphere time (%) = 1.00001e-07 (5.64929e-07)
Fix pts6 particletemplate/sphere time (%) = 2.81001e-07 (1.58745e-06)
Fix pts7 particletemplate/sphere time (%) = 1.90001e-07 (1.07336e-06)
Fix pts8 particletemplate/sphere time (%) = 1.91001e-07 (1.07901e-06)
Fix pdd particledistribution/discrete/numberbased time (%) = 2.00002e-07 (1.12986e-06)
Fix integr nve/sphere time (%) = 0.631396 (3.56691)
Fix csvfile2 print time (%) = 9.1383e-05 (0.000516246)
Fix csvfile3 print time (%) = 1.4037e-05 (7.92986e-05)
Fix move_shear_blades move/mesh time (%) = 0.00235778 (0.0133197)
Fix move_shear_head move/mesh time (%) = 0.00235017 (0.0132767)
Fix contacthistory contacthistory time (%) = 0.0399315 (0.225583)

Nlocal:    419988 ave 419988 max 419988 min
Histogram: 1 0 0 0 0 0 0 0 0 0
Nghost:    0 ave 0 max 0 min
Histogram: 1 0 0 0 0 0 0 0 0 0
Neighs:    2.87275e+06 ave 2.87275e+06 max 2.87275e+06 min
Histogram: 1 0 0 0 0 0 0 0 0 0

Total # of neighbors = 2872753
Ave neighs/atom = 6.84008
Neighbor list builds = 1
Dangerous builds = 0
fix move_shear_blades all move/mesh mesh shear_blades linear 0.0 0.0 0.008380376717624496
fix move_shear_head all move/mesh mesh shear_head linear 0.0 0.0 -0.028496144569719103
fix move_shear_blades all move/mesh mesh shear_blades linear 0.0 0.0 -0.028496144569719103
fix move_shear_head all move/mesh mesh shear_head linear 0.0 0.0 -0.028496144569719103
run 100
Setting up run at Tue Mar 29 20:59:17 2022

Memory usage per processor = 339.584 Mbytes
    Step    Atoms         KinEng         Volume           Time 
  191700   419988  0.00093183514     0.00480392          0.014 
  191800   419988  0.00035078319     0.00480392          0.015 
Loop time of 17.7129 on 1 procs for 100 steps with 419988 atoms, finish time Tue Mar 29 20:59:36 2022


Pair  time (%) = 13.5783 (76.6582)
Neigh time (%) = 0.37065 (2.09255)
Comm  time (%) = 0.00326699 (0.0184442)
Outpt time (%) = 0.00149819 (0.00845818)
Modfy time (%) = 3.51904 (19.8672)
Other time (%) = 0.240049 (1.35522)
Fix gravi gravity time (%) = 0.159996 (0.903279)
Fix m1 property/global time (%) = 2.91002e-07 (1.64289e-06)
Fix m2 property/global time (%) = 1.00001e-07 (5.64566e-07)
Fix m3 property/global time (%) = 4.31002e-07 (2.43327e-06)
Fix m4 property/global time (%) = 1.10002e-07 (6.21027e-07)
Fix m5 property/global time (%) = 1.01001e-07 (5.70214e-07)
Fix m7 property/global time (%) = 1.00001e-07 (5.64566e-07)
Fix cad mesh/surface/stress time (%) = 0.0031479 (0.0177718)
Fix shear_head mesh/surface/stress time (%) = 0.00311884 (0.0176078)
Fix shear_blades mesh/surface/stress time (%) = 0.00245966 (0.0138863)
Fix inface mesh/surface time (%) = 0.00017131 (0.000967151)
Fix granwalls wall/gran time (%) = 2.60425 (14.7026)
Fix wall_neighlist_cad neighlist/mesh time (%) = 0.0134481 (0.0759229)
Fix n_neighs_mesh_cad property/atom time (%) = 7.21e-07 (4.07049e-06)
Fix tracker_cad contacthistory/mesh time (%) = 0.00796653 (0.044976)
Fix wall_neighlist_shear_head neighlist/mesh time (%) = 0.0170928 (0.0964996)
Fix n_neighs_mesh_shear_head property/atom time (%) = 2.10002e-07 (1.18559e-06)
Fix tracker_shear_head contacthistory/mesh time (%) = 0.00386351 (0.0218119)
Fix wall_neighlist_shear_blades neighlist/mesh time (%) = 0.0232674 (0.131359)
Fix n_neighs_mesh_shear_blades property/atom time (%) = 2.3e-07 (1.29849e-06)
Fix tracker_shear_blades contacthistory/mesh time (%) = 0.00333625 (0.0188352)
Fix pts0 particletemplate/sphere time (%) = 2.81001e-07 (1.58643e-06)
Fix pts1 particletemplate/sphere time (%) = 2.00002e-07 (1.12913e-06)
Fix pts2 particletemplate/sphere time (%) = 1.91001e-07 (1.07832e-06)
Fix pts3 particletemplate/sphere time (%) = 1.00001e-07 (5.64566e-07)
Fix pts4 particletemplate/sphere time (%) = 1.00001e-07 (5.64566e-07)
Fix pts5 particletemplate/sphere time (%) = 1.10002e-07 (6.21027e-07)
Fix pts6 particletemplate/sphere time (%) = 2.81001e-07 (1.58643e-06)
Fix pts7 particletemplate/sphere time (%) = 1.8e-07 (1.01621e-06)
Fix pts8 particletemplate/sphere time (%) = 1.90998e-07 (1.0783e-06)
Fix pdd particledistribution/discrete/numberbased time (%) = 1.99998e-07 (1.12911e-06)
Fix integr nve/sphere time (%) = 0.631155 (3.56326)
Fix csvfile2 print time (%) = 7.4841e-05 (0.000422524)
Fix csvfile3 print time (%) = 1.4298e-05 (8.0721e-05)
Fix move_shear_blades move/mesh time (%) = 0.00235455 (0.0132929)
Fix move_shear_head move/mesh time (%) = 0.00238166 (0.0134459)
Fix contacthistory contacthistory time (%) = 0.040936 (0.231109)

Nlocal:    419988 ave 419988 max 419988 min
Histogram: 1 0 0 0 0 0 0 0 0 0
Nghost:    0 ave 0 max 0 min
Histogram: 1 0 0 0 0 0 0 0 0 0
Neighs:    2.8741e+06 ave 2.8741e+06 max 2.8741e+06 min
Histogram: 1 0 0 0 0 0 0 0 0 0

Total # of neighbors = 2874101
Ave neighs/atom = 6.84329
Neighbor list builds = 1
Dangerous builds = 0
fix move_shear_blades all move/mesh mesh shear_blades linear 0.0 0.0 -0.028496144569719103
fix move_shear_head all move/mesh mesh shear_head linear 0.0 0.0 -0.030666974734858955
fix move_shear_blades all move/mesh mesh shear_blades linear 0.0 0.0 -0.030666974734858955
fix move_shear_head all move/mesh mesh shear_head linear 0.0 0.0 -0.030666974734858955
run 100
Setting up run at Tue Mar 29 20:59:36 2022

Memory usage per processor = 339.584 Mbytes
    Step    Atoms         KinEng         Volume           Time 
  191800   419988  0.00035078319     0.00480392          0.015 
  191900   419988  0.00036789951     0.00480392          0.016 
Loop time of 17.8005 on 1 procs for 100 steps with 419988 atoms, finish time Tue Mar 29 20:59:55 2022


Pair  time (%) = 13.6764 (76.8313)
Neigh time (%) = 0.368539 (2.07039)
Comm  time (%) = 0.0032196 (0.0180871)
Outpt time (%) = 0.00152246 (0.00855291)
Modfy time (%) = 3.50998 (19.7184)
Other time (%) = 0.240873 (1.35318)
Fix gravi gravity time (%) = 0.160159 (0.899744)
Fix m1 property/global time (%) = 2.90998e-07 (1.63478e-06)
Fix m2 property/global time (%) = 1.00001e-07 (5.61786e-07)
Fix m3 property/global time (%) = 1.10998e-07 (6.23569e-07)
Fix m4 property/global time (%) = 1.00001e-07 (5.61786e-07)
Fix m5 property/global time (%) = 1.09998e-07 (6.17948e-07)
Fix m7 property/global time (%) = 1.00001e-07 (5.61786e-07)
Fix cad mesh/surface/stress time (%) = 0.00321005 (0.0180335)
Fix shear_head mesh/surface/stress time (%) = 0.00314599 (0.0176736)
Fix shear_blades mesh/surface/stress time (%) = 0.00245251 (0.0137778)
Fix inface mesh/surface time (%) = 0.000175754 (0.000987354)
Fix granwalls wall/gran time (%) = 2.59495 (14.578)
Fix wall_neighlist_cad neighlist/mesh time (%) = 0.0134214 (0.0753991)
Fix n_neighs_mesh_cad property/atom time (%) = 7.13e-07 (4.00551e-06)
Fix tracker_cad contacthistory/mesh time (%) = 0.00791653 (0.0444736)
Fix wall_neighlist_shear_head neighlist/mesh time (%) = 0.0169724 (0.0953482)
Fix n_neighs_mesh_shear_head property/atom time (%) = 3.70001e-07 (2.0786e-06)
Fix tracker_shear_head contacthistory/mesh time (%) = 0.00390545 (0.0219401)
Fix wall_neighlist_shear_blades neighlist/mesh time (%) = 0.0232407 (0.130562)
Fix n_neighs_mesh_shear_blades property/atom time (%) = 3.39998e-07 (1.91005e-06)
Fix tracker_shear_blades contacthistory/mesh time (%) = 0.00341367 (0.0191774)
Fix pts0 particletemplate/sphere time (%) = 2.90998e-07 (1.63478e-06)
Fix pts1 particletemplate/sphere time (%) = 1.99998e-07 (1.12355e-06)
Fix pts2 particletemplate/sphere time (%) = 1.91001e-07 (1.07301e-06)
Fix pts3 particletemplate/sphere time (%) = 1.10002e-07 (6.17969e-07)
Fix pts4 particletemplate/sphere time (%) = 2.71e-07 (1.52243e-06)
[...]
unfix rotate_cad
fix rotate_cad all move/mesh mesh cad rotate origin 0. 0. 0. axis  0. 0. 1.0 period 12.0
fix move_shear_blades all move/mesh mesh shear_blades linear 0.0 0.0 0.0009129117114157239
fix move_shear_head all move/mesh mesh shear_head linear 0.0 0.0 0.0009129117114157239
run 100
Setting up run at Tue Mar 29 21:53:44 2022

Memory usage per processor = 341.11 Mbytes
    Step    Atoms         KinEng         Volume           Time 
  209300   419988  0.00060195608     0.00480392           0.19 
  209400   419988  0.00062644175     0.00480392          0.191 
Loop time of 17.5613 on 1 procs for 100 steps with 419988 atoms, finish time Tue Mar 29 21:54:02 2022


Pair  time (%) = 13.3885 (76.2383)
Neigh time (%) = 0.361889 (2.06071)
Comm  time (%) = 0.00323468 (0.0184193)
Outpt time (%) = 0.00152687 (0.0086945)
Modfy time (%) = 3.56694 (20.3114)
Other time (%) = 0.23927 (1.36248)
Fix gravi gravity time (%) = 0.159991 (0.911041)
Fix m1 property/global time (%) = 2.90998e-07 (1.65704e-06)
Fix m2 property/global time (%) = 1.00001e-07 (5.69438e-07)
Fix m3 property/global time (%) = 1.50001e-07 (8.54157e-07)
Fix m4 property/global time (%) = 1.10002e-07 (6.26386e-07)
Fix m5 property/global time (%) = 1.00001e-07 (5.69438e-07)
Fix m7 property/global time (%) = 1.10002e-07 (6.26386e-07)
Fix cad mesh/surface/stress time (%) = 0.00544275 (0.0309928)
Fix shear_head mesh/surface/stress time (%) = 0.00301 (0.01714)
Fix shear_blades mesh/surface/stress time (%) = 0.00243786 (0.013882)
Fix inface mesh/surface time (%) = 0.000169077 (0.000962781)
Fix granwalls wall/gran time (%) = 2.61907 (14.9138)
Fix wall_neighlist_cad neighlist/mesh time (%) = 0.0343125 (0.195387)
Fix n_neighs_mesh_cad property/atom time (%) = 1.062e-06 (6.04738e-06)
Fix tracker_cad contacthistory/mesh time (%) = 0.00815552 (0.0464402)
Fix wall_neighlist_shear_head neighlist/mesh time (%) = 0.017172 (0.097783)
Fix n_neighs_mesh_shear_head property/atom time (%) = 3.71001e-07 (2.1126e-06)
Fix tracker_shear_head contacthistory/mesh time (%) = 0.00372986 (0.0212391)
Fix wall_neighlist_shear_blades neighlist/mesh time (%) = 0.0225821 (0.12859)
Fix n_neighs_mesh_shear_blades property/atom time (%) = 2.20003e-07 (1.25277e-06)
Fix tracker_shear_blades contacthistory/mesh time (%) = 0.00329406 (0.0187575)
Fix pts0 particletemplate/sphere time (%) = 2.90001e-07 (1.65137e-06)
Fix pts1 particletemplate/sphere time (%) = 2.01002e-07 (1.14457e-06)
Fix pts2 particletemplate/sphere time (%) = 1.90001e-07 (1.08193e-06)
Fix pts3 particletemplate/sphere time (%) = 1.10002e-07 (6.26386e-07)
Fix pts4 particletemplate/sphere time (%) = 1.10002e-07 (6.26386e-07)
Fix pts5 particletemplate/sphere time (%) = 1.09998e-07 (6.26365e-07)
Fix pts6 particletemplate/sphere time (%) = 2.90998e-07 (1.65704e-06)
Fix pts7 particletemplate/sphere time (%) = 1.90001e-07 (1.08193e-06)
Fix pts8 particletemplate/sphere time (%) = 2.00002e-07 (1.13888e-06)
Fix pdd particledistribution/discrete/numberbased time (%) = 1.91001e-07 (1.08762e-06)
Fix integr nve/sphere time (%) = 0.631526 (3.59612)
Fix csvfile2 print time (%) = 7.5975e-05 (0.000432627)
Fix csvfile3 print time (%) = 1.4838e-05 (8.44925e-05)
Fix move_shear_blades move/mesh time (%) = 0.00239348 (0.0136293)
Fix move_shear_head move/mesh time (%) = 0.00234606 (0.0133592)
Fix contacthistory contacthistory time (%) = 0.039665 (0.225866)
Fix rotate_cad move/mesh time (%) = 0.0115545 (0.0657954)

Nlocal:    419988 ave 419988 max 419988 min
Histogram: 1 0 0 0 0 0 0 0 0 0
Nghost:    0 ave 0 max 0 min
Histogram: 1 0 0 0 0 0 0 0 0 0
Neighs:    2.84549e+06 ave 2.84549e+06 max 2.84549e+06 min
Histogram: 1 0 0 0 0 0 0 0 0 0

Total # of neighbors = 2845488
Ave neighs/atom = 6.77517
Neighbor list builds = 1
Dangerous builds = 0
unfix rotate_cad
fix rotate_cad all move/mesh mesh cad rotate origin 0. 0. 0. axis  0. 0. 1.0 period 12.0
fix move_shear_blades all move/mesh mesh shear_blades linear 0.0 0.0 0.0009129117114157239
fix move_shear_head all move/mesh mesh shear_head linear 0.0 0.0 0.0008383857880206343
unfix rotate_cad
fix rotate_cad all move/mesh mesh cad rotate origin 0. 0. 0. axis  0. 0. 1.0 period 12.0
fix move_shear_blades all move/mesh mesh shear_blades linear 0.0 0.0 0.0008383857880206343
fix move_shear_head all move/mesh mesh shear_head linear 0.0 0.0 0.0008383857880206343
run 100
Setting up run at Tue Mar 29 21:54:02 2022

Memory usage per processor = 341.11 Mbytes
    Step    Atoms         KinEng         Volume           Time 
  209400   419988  0.00062644175     0.00480392          0.191 
  209500   419988  0.00060237563     0.00480392          0.192 
Loop time of 17.5971 on 1 procs for 100 steps with 419988 atoms, finish time Tue Mar 29 21:54:21 2022


Pair  time (%) = 13.4114 (76.2136)
Neigh time (%) = 0.361137 (2.05225)
Comm  time (%) = 0.00324507 (0.0184409)
Outpt time (%) = 0.00150048 (0.00852683)
Modfy time (%) = 3.57872 (20.3369)
Other time (%) = 0.241124 (1.37024)
Fix gravi gravity time (%) = 0.160218 (0.91048)
Fix m1 property/global time (%) = 3.41002e-07 (1.93783e-06)
Fix m2 property/global time (%) = 1.60002e-07 (9.0925e-07)
Fix m3 property/global time (%) = 1.10002e-07 (6.25111e-07)
Fix m4 property/global time (%) = 1.10002e-07 (6.25111e-07)
Fix m5 property/global time (%) = 1.10998e-07 (6.30775e-07)
Fix m7 property/global time (%) = 1.10002e-07 (6.25111e-07)
Fix cad mesh/surface/stress time (%) = 0.00548062 (0.031145)
Fix shear_head mesh/surface/stress time (%) = 0.00302974 (0.0172172)
Fix shear_blades mesh/surface/stress time (%) = 0.00243534 (0.0138394)
Fix inface mesh/surface time (%) = 0.000174878 (0.000993787)
Fix granwalls wall/gran time (%) = 2.62963 (14.9435)
Fix wall_neighlist_cad neighlist/mesh time (%) = 0.0345746 (0.196479)
Fix n_neighs_mesh_cad property/atom time (%) = 8.81999e-07 (5.01217e-06)
Fix tracker_cad contacthistory/mesh time (%) = 0.00812923 (0.0461963)
Fix wall_neighlist_shear_head neighlist/mesh time (%) = 0.0173183 (0.0984154)
Fix n_neighs_mesh_shear_head property/atom time (%) = 2.01002e-07 (1.14224e-06)
Fix tracker_shear_head contacthistory/mesh time (%) = 0.00373146 (0.0212049)
Fix wall_neighlist_shear_blades neighlist/mesh time (%) = 0.0225694 (0.128256)
Fix n_neighs_mesh_shear_blades property/atom time (%) = 2.19999e-07 (1.2502e-06)
Fix tracker_shear_blades contacthistory/mesh time (%) = 0.00328974 (0.0186948)
Fix pts0 particletemplate/sphere time (%) = 2.90998e-07 (1.65367e-06)
Fix pts1 particletemplate/sphere time (%) = 2.00002e-07 (1.13656e-06)
Fix pts2 particletemplate/sphere time (%) = 4.11001e-07 (2.33561e-06)
Fix pts3 particletemplate/sphere time (%) = 1.20002e-07 (6.81943e-07)
Fix pts4 particletemplate/sphere time (%) = 1.01001e-07 (5.73964e-07)
Fix pts5 particletemplate/sphere time (%) = 1.19999e-07 (6.81922e-07)
Fix pts6 particletemplate/sphere time (%) = 2.80001e-07 (1.59117e-06)
Fix pts7 particletemplate/sphere time (%) = 2.00998e-07 (1.14222e-06)
Fix pts8 particletemplate/sphere time (%) = 2.00002e-07 (1.13656e-06)
Fix pdd particledistribution/discrete/numberbased time (%) = 2.00998e-07 (1.14222e-06)
Fix integr nve/sphere time (%) = 0.63271 (3.59553)
Fix csvfile2 print time (%) = 6.6747e-05 (0.000379306)
Fix csvfile3 print time (%) = 1.519e-05 (8.63209e-05)
Fix move_shear_blades move/mesh time (%) = 0.00242331 (0.013771)
Fix move_shear_head move/mesh time (%) = 0.00237485 (0.0134957)
Fix contacthistory contacthistory time (%) = 0.0389008 (0.221064)
Fix rotate_cad move/mesh time (%) = 0.0116446 (0.0661734)

Nlocal:    419988 ave 419988 max 419988 min
Histogram: 1 0 0 0 0 0 0 0 0 0
Nghost:    0 ave 0 max 0 min
Histogram: 1 0 0 0 0 0 0 0 0 0
Neighs:    2.84541e+06 ave 2.84541e+06 max 2.84541e+06 min
Histogram: 1 0 0 0 0 0 0 0 0 0

Total # of neighbors = 2845407
Ave neighs/atom = 6.77497
Neighbor list builds = 1
Dangerous builds = 0
unfix rotate_cad
fix rotate_cad all move/mesh mesh cad rotate origin 0. 0. 0. axis  0. 0. 1.0 period 12.0
fix move_shear_blades all move/mesh mesh shear_blades linear 0.0 0.0 0.0008383857880206343
fix move_shear_head all move/mesh mesh shear_head linear 0.0 0.0 0.0007450842896839199
unfix rotate_cad
fix rotate_cad all move/mesh mesh cad rotate origin 0. 0. 0. axis  0. 0. 1.0 period 12.0
fix move_shear_blades all move/mesh mesh shear_blades linear 0.0 0.0 0.0007450842896839199
fix move_shear_head all move/mesh mesh shear_head linear 0.0 0.0 0.0007450842896839199
run 100
Setting up run at Tue Mar 29 21:54:21 2022

Memory usage per processor = 341.11 Mbytes
    Step    Atoms         KinEng         Volume           Time 
  209500   419988  0.00060237563     0.00480392          0.192 
  209600   419988  0.00059857079     0.00480392          0.193 
Loop time of 17.8514 on 1 procs for 100 steps with 419988 atoms, finish time Tue Mar 29 21:54:39 2022


Pair  time (%) = 13.6088 (76.2337)
Neigh time (%) = 0.37576 (2.10493)
Comm  time (%) = 0.00328205 (0.0183854)
Outpt time (%) = 0.00148652 (0.00832719)
Modfy time (%) = 3.61917 (20.2738)
Other time (%) = 0.242925 (1.36081)
Fix gravi gravity time (%) = 0.161816 (0.906461)
Fix m1 property/global time (%) = 2.90001e-07 (1.62453e-06)
Fix m2 property/global time (%) = 9.99971e-08 (5.60163e-07)
Fix m3 property/global time (%) = 1.00998e-07 (5.65767e-07)
Fix m4 property/global time (%) = 1.09998e-07 (6.16185e-07)
Fix m5 property/global time (%) = 9.99971e-08 (5.60163e-07)
Fix m7 property/global time (%) = 1.09998e-07 (6.16185e-07)
Fix cad mesh/surface/stress time (%) = 0.00557046 (0.0312046)
Fix shear_head mesh/surface/stress time (%) = 0.00307164 (0.0172067)
Fix shear_blades mesh/surface/stress time (%) = 0.00246757 (0.0138228)
Fix inface mesh/surface time (%) = 0.000175501 (0.00098312)
Fix granwalls wall/gran time (%) = 2.65769 (14.8878)
Fix wall_neighlist_cad neighlist/mesh time (%) = 0.0349836 (0.195971)
Fix n_neighs_mesh_cad property/atom time (%) = 7.10999e-07 (3.98287e-06)
Fix tracker_cad contacthistory/mesh time (%) = 0.00825835 (0.0462615)
Fix wall_neighlist_shear_head neighlist/mesh time (%) = 0.0174359 (0.0976721)
Fix n_neighs_mesh_shear_head property/atom time (%) = 2.00002e-07 (1.12037e-06)
Fix tracker_shear_head contacthistory/mesh time (%) = 0.00400772 (0.0224504)
Fix wall_neighlist_shear_blades neighlist/mesh time (%) = 0.0228398 (0.127944)
Fix n_neighs_mesh_shear_blades property/atom time (%) = 2.20003e-07 (1.23241e-06)
Fix tracker_shear_blades contacthistory/mesh time (%) = 0.00352827 (0.0197647)
Fix pts0 particletemplate/sphere time (%) = 2.80001e-07 (1.56851e-06)
Fix pts1 particletemplate/sphere time (%) = 1.91001e-07 (1.06995e-06)
Fix pts2 particletemplate/sphere time (%) = 1.90001e-07 (1.06434e-06)
Fix pts3 particletemplate/sphere time (%) = 1.10002e-07 (6.16206e-07)
Fix pts4 particletemplate/sphere time (%) = 9.99971e-08 (5.60163e-07)
Fix pts5 particletemplate/sphere time (%) = 9.99971e-08 (5.60163e-07)
Fix pts6 particletemplate/sphere time (%) = 2.90998e-07 (1.63011e-06)
Fix pts7 particletemplate/sphere time (%) = 1.90001e-07 (1.06434e-06)
Fix pts8 particletemplate/sphere time (%) = 1.91001e-07 (1.06995e-06)
Fix pdd particledistribution/discrete/numberbased time (%) = 1.90001e-07 (1.06434e-06)
Fix integr nve/sphere time (%) = 0.640583 (3.58841)
Fix csvfile2 print time (%) = 7.7046e-05 (0.000431596)
Fix csvfile3 print time (%) = 1.4387e-05 (8.0593e-05)
Fix move_shear_blades move/mesh time (%) = 0.00250246 (0.0140183)
Fix move_shear_head move/mesh time (%) = 0.002435 (0.0136404)
Fix contacthistory contacthistory time (%) = 0.0400968 (0.224614)
Fix rotate_cad move/mesh time (%) = 0.0116181 (0.0650822)

Nlocal:    419988 ave 419988 max 419988 min
Histogram: 1 0 0 0 0 0 0 0 0 0
Nghost:    0 ave 0 max 0 min
Histogram: 1 0 0 0 0 0 0 0 0 0
Neighs:    2.84544e+06 ave 2.84544e+06 max 2.84544e+06 min
Histogram: 1 0 0 0 0 0 0 0 0 0

Total # of neighbors = 2845440
Ave neighs/atom = 6.77505
Neighbor list builds = 1
Dangerous builds = 0
unfix rotate_cad
fix rotate_cad all move/mesh mesh cad rotate origin 0. 0. 0. axis  0. 0. 1.0 period 12.0
fix move_shear_blades all move/mesh mesh shear_blades linear 0.0 0.0 0.0007450842896839199
fix move_shear_head all move/mesh mesh shear_head linear 0.0 0.0 0.0007102576079945351
unfix rotate_cad
fix rotate_cad all move/mesh mesh cad rotate origin 0. 0. 0. axis  0. 0. 1.0 period 12.0
fix move_shear_blades all move/mesh mesh shear_blades linear 0.0 0.0 0.0007102576079945351
fix move_shear_head all move/mesh mesh shear_head linear 0.0 0.0 0.0007102576079945351
run 100
Setting up run at Tue Mar 29 21:54:39 2022

Memory usage per processor = 341.11 Mbytes
    Step    Atoms         KinEng         Volume           Time 
  209600   419988  0.00059857079     0.00480392          0.193 
  209700   419988  0.00059044245     0.00480392          0.194 
Loop time of 17.7892 on 1 procs for 100 steps with 419988 atoms, finish time Tue Mar 29 21:54:58 2022


Pair  time (%) = 13.5693 (76.2784)
Neigh time (%) = 0.36767 (2.06682)
Comm  time (%) = 0.00330244 (0.0185643)
Outpt time (%) = 0.00149046 (0.00837845)
Modfy time (%) = 3.60562 (20.2686)
Other time (%) = 0.2418 (1.35925)
Fix gravi gravity time (%) = 0.161236 (0.906369)
Fix m1 property/global time (%) = 2.89998e-07 (1.63019e-06)
Fix m2 property/global time (%) = 9.99971e-08 (5.62123e-07)
Fix m3 property/global time (%) = 1.10998e-07 (6.23965e-07)
Fix m4 property/global time (%) = 1.09998e-07 (6.18341e-07)
Fix m5 property/global time (%) = 1.00001e-07 (5.62143e-07)
Fix m7 property/global time (%) = 2.61e-07 (1.46718e-06)
Fix cad mesh/surface/stress time (%) = 0.00551247 (0.0309877)
Fix shear_head mesh/surface/stress time (%) = 0.00303016 (0.0170337)
Fix shear_blades mesh/surface/stress time (%) = 0.00245296 (0.0137891)
Fix inface mesh/surface time (%) = 0.000169354 (0.000952005)
Fix granwalls wall/gran time (%) = 2.64848 (14.8881)
Fix wall_neighlist_cad neighlist/mesh time (%) = 0.0345748 (0.194359)
Fix n_neighs_mesh_cad property/atom time (%) = 7.10999e-07 (3.99681e-06)
Fix tracker_cad contacthistory/mesh time (%) = 0.00833623 (0.0468612)
Fix wall_neighlist_shear_head neighlist/mesh time (%) = 0.017466 (0.0981833)
Fix n_neighs_mesh_shear_head property/atom time (%) = 2.09999e-07 (1.18048e-06)
Fix tracker_shear_head contacthistory/mesh time (%) = 0.00403193 (0.022665)
Fix wall_neighlist_shear_blades neighlist/mesh time (%) = 0.022904 (0.128752)
Fix n_neighs_mesh_shear_blades property/atom time (%) = 2.19999e-07 (1.2367e-06)
Fix tracker_shear_blades contacthistory/mesh time (%) = 0.00332377 (0.0186842)
Fix pts0 particletemplate/sphere time (%) = 2.90001e-07 (1.63021e-06)
Fix pts1 particletemplate/sphere time (%) = 1.91001e-07 (1.07369e-06)
Fix pts2 particletemplate/sphere time (%) = 1.90001e-07 (1.06807e-06)
Fix pts3 particletemplate/sphere time (%) = 1.10002e-07 (6.18362e-07)
Fix pts4 particletemplate/sphere time (%) = 1.01001e-07 (5.67767e-07)
Fix pts5 particletemplate/sphere time (%) = 1.19999e-07 (6.7456e-07)
Fix pts6 particletemplate/sphere time (%) = 2.80997e-07 (1.5796e-06)
Fix pts7 particletemplate/sphere time (%) = 1.90001e-07 (1.06807e-06)
Fix pts8 particletemplate/sphere time (%) = 1.99998e-07 (1.12427e-06)
Fix pdd particledistribution/discrete/numberbased time (%) = 2.00998e-07 (1.12989e-06)
Fix integr nve/sphere time (%) = 0.637079 (3.58127)
Fix csvfile2 print time (%) = 6.7048e-05 (0.000376903)
Fix csvfile3 print time (%) = 1.4357e-05 (8.07063e-05)
Fix move_shear_blades move/mesh time (%) = 0.00243247 (0.0136739)
Fix move_shear_head move/mesh time (%) = 0.00241933 (0.0136)
Fix contacthistory contacthistory time (%) = 0.0404317 (0.227282)
Fix rotate_cad move/mesh time (%) = 0.0116568 (0.0655276)

Nlocal:    419988 ave 419988 max 419988 min
Histogram: 1 0 0 0 0 0 0 0 0 0
Nghost:    0 ave 0 max 0 min
Histogram: 1 0 0 0 0 0 0 0 0 0
Neighs:    2.84528e+06 ave 2.84528e+06 max 2.84528e+06 min
Histogram: 1 0 0 0 0 0 0 0 0 0

Total # of neighbors = 2845284
Ave neighs/atom = 6.77468
Neighbor list builds = 1
Dangerous builds = 0
unfix rotate_cad
fix rotate_cad all move/mesh mesh cad rotate origin 0. 0. 0. axis  0. 0. 1.0 period 12.0
fix move_shear_blades all move/mesh mesh shear_blades linear 0.0 0.0 0.0007102576079945351
fix move_shear_head all move/mesh mesh shear_head linear 0.0 0.0 0.0006192782823258654
unfix rotate_cad
fix rotate_cad all move/mesh mesh cad rotate origin 0. 0. 0. axis  0. 0. 1.0 period 12.0
fix move_shear_blades all move/mesh mesh shear_blades linear 0.0 0.0 0.0006192782823258654
fix move_shear_head all move/mesh mesh shear_head linear 0.0 0.0 0.0006192782823258654
run 100
Setting up run at Tue Mar 29 21:54:58 2022

Memory usage per processor = 341.11 Mbytes
    Step    Atoms         KinEng         Volume           Time 
  209700   419988  0.00059044245     0.00480392          0.194 
  209800   419988  0.00058493731     0.00480392          0.195 
Loop time of 18.1967 on 1 procs for 100 steps with 419988 atoms, finish time Tue Mar 29 21:55:17 2022


Pair  time (%) = 13.907 (76.4261)
Neigh time (%) = 0.371452 (2.04132)
Comm  time (%) = 0.00325972 (0.0179138)
Outpt time (%) = 0.00153807 (0.00845248)
Modfy time (%) = 3.66565 (20.1446)
Other time (%) = 0.247773 (1.36164)
Fix gravi gravity time (%) = 0.162606 (0.893601)
Fix m1 property/global time (%) = 2.90998e-07 (1.59918e-06)
Fix m2 property/global time (%) = 1.10002e-07 (6.04515e-07)
Fix m3 property/global time (%) = 1.09998e-07 (6.04495e-07)
Fix m4 property/global time (%) = 1.10002e-07 (6.04515e-07)
Fix m5 property/global time (%) = 1.00001e-07 (5.49555e-07)
Fix m7 property/global time (%) = 1.10002e-07 (6.04515e-07)
Fix cad mesh/surface/stress time (%) = 0.00570364 (0.0313444)
Fix shear_head mesh/surface/stress time (%) = 0.00320021 (0.0175868)
Fix shear_blades mesh/surface/stress time (%) = 0.00268793 (0.0147716)
Fix inface mesh/surface time (%) = 0.000174266 (0.00095768)
Fix granwalls wall/gran time (%) = 2.69807 (14.8273)
Fix wall_neighlist_cad neighlist/mesh time (%) = 0.0349625 (0.192137)
Fix n_neighs_mesh_cad property/atom time (%) = 6.40997e-07 (3.52261e-06)
Fix tracker_cad contacthistory/mesh time (%) = 0.00848904 (0.0466516)
Fix wall_neighlist_shear_head neighlist/mesh time (%) = 0.0177417 (0.0974996)
Fix n_neighs_mesh_shear_head property/atom time (%) = 2.00995e-07 (1.10457e-06)
Fix tracker_shear_head contacthistory/mesh time (%) = 0.00380752 (0.0209243)
Fix wall_neighlist_shear_blades neighlist/mesh time (%) = 0.0230332 (0.126579)
Fix n_neighs_mesh_shear_blades property/atom time (%) = 2.19996e-07 (1.20899e-06)
Fix tracker_shear_blades contacthistory/mesh time (%) = 0.00334594 (0.0183876)
Fix pts0 particletemplate/sphere time (%) = 2.91002e-07 (1.5992e-06)
Fix pts1 particletemplate/sphere time (%) = 1.90001e-07 (1.04415e-06)
Fix pts2 particletemplate/sphere time (%) = 2.01002e-07 (1.10461e-06)
Fix pts3 particletemplate/sphere time (%) = 1.10002e-07 (6.04515e-07)
Fix pts4 particletemplate/sphere time (%) = 9.99971e-08 (5.49535e-07)
Fix pts5 particletemplate/sphere time (%) = 1.09998e-07 (6.04495e-07)
Fix pts6 particletemplate/sphere time (%) = 2.90998e-07 (1.59918e-06)
Fix pts7 particletemplate/sphere time (%) = 1.89997e-07 (1.04413e-06)
Fix pts8 particletemplate/sphere time (%) = 1.89997e-07 (1.04413e-06)
Fix pdd particledistribution/discrete/numberbased time (%) = 1.99998e-07 (1.09909e-06)
Fix integr nve/sphere time (%) = 0.644391 (3.54126)
Fix csvfile2 print time (%) = 6.8932e-05 (0.000378816)
Fix csvfile3 print time (%) = 1.4818e-05 (8.14325e-05)
Fix move_shear_blades move/mesh time (%) = 0.0026133 (0.0143614)
Fix move_shear_head move/mesh time (%) = 0.00244217 (0.0134209)
Fix contacthistory contacthistory time (%) = 0.0403069 (0.221507)
Fix rotate_cad move/mesh time (%) = 0.0119844 (0.0658607)

Nlocal:    419988 ave 419988 max 419988 min
Histogram: 1 0 0 0 0 0 0 0 0 0
Nghost:    0 ave 0 max 0 min
Histogram: 1 0 0 0 0 0 0 0 0 0
Neighs:    2.8454e+06 ave 2.8454e+06 max 2.8454e+06 min
Histogram: 1 0 0 0 0 0 0 0 0 0

Total # of neighbors = 2845397
Ave neighs/atom = 6.77495
Neighbor list builds = 1
Dangerous builds = 0
